 Entering Gaussian System, Link 0=/home/rong/g16/g16
 Input=/home/rong/g16/learning/biphenMeCHNMeCH2CH3-2.gjf
 Output=/home/rong/g16/learning/biphenMeCHNMeCH2CH3-2.log
 Initial command:
 /home/rong/g16/l1.exe "/tmp/Gau-569053.inp" -scrdir="/tmp/"
 Entering Link 1 = /home/rong/g16/l1.exe PID=    569055.
  
 Copyright (c) 1988-2019, Gaussian, Inc.  All Rights Reserved.
  
 This is part of the Gaussian(R) 16 program.  It is based on
 the Gaussian(R) 09 system (copyright 2009, Gaussian, Inc.),
 the Gaussian(R) 03 system (copyright 2003, Gaussian, Inc.),
 the Gaussian(R) 98 system (copyright 1998, Gaussian, Inc.),
 the Gaussian(R) 94 system (copyright 1995, Gaussian, Inc.),
 the Gaussian 92(TM) system (copyright 1992, Gaussian, Inc.),
 the Gaussian 90(TM) system (copyright 1990, Gaussian, Inc.),
 the Gaussian 88(TM) system (copyright 1988, Gaussian, Inc.),
 the Gaussian 86(TM) system (copyright 1986, Carnegie Mellon
 University), and the Gaussian 82(TM) system (copyright 1983,
 Carnegie Mellon University). Gaussian is a federally registered
 trademark of Gaussian, Inc.
  
 This software contains proprietary and confidential information,
 including trade secrets, belonging to Gaussian, Inc.
  
 This software is provided under written license and may be
 used, copied, transmitted, or stored only in accord with that
 written license.
  
 The following legend is applicable only to US Government
 contracts under FAR:
  
                    RESTRICTED RIGHTS LEGEND
  
 Use, reproduction and disclosure by the US Government is
 subject to restrictions as set forth in subparagraphs (a)
 and (c) of the Commercial Computer Software - Restricted
 Rights clause in FAR 52.227-19.
  
 Gaussian, Inc.
 340 Quinnipiac St., Bldg. 40, Wallingford CT 06492
  
  
 ---------------------------------------------------------------
 Warning -- This program may not be used in any manner that
 competes with the business of Gaussian, Inc. or will provide
 assistance to any competitor of Gaussian, Inc.  The licensee
 of this program is prohibited from giving any competitor of
 Gaussian, Inc. access to this program.  By using this program,
 the user acknowledges that Gaussian, Inc. is engaged in the
 business of creating and licensing software in the field of
 computational chemistry and represents and warrants to the
 licensee that it is not a competitor of Gaussian, Inc. and that
 it will not use this program in any manner prohibited above.
 ---------------------------------------------------------------
  

 Cite this work as:
 Gaussian 16, Revision C.01,
 M. J. Frisch, G. W. Trucks, H. B. Schlegel, G. E. Scuseria, 
 M. A. Robb, J. R. Cheeseman, G. Scalmani, V. Barone, 
 G. A. Petersson, H. Nakatsuji, X. Li, M. Caricato, A. V. Marenich, 
 J. Bloino, B. G. Janesko, R. Gomperts, B. Mennucci, H. P. Hratchian, 
 J. V. Ortiz, A. F. Izmaylov, J. L. Sonnenberg, D. Williams-Young, 
 F. Ding, F. Lipparini, F. Egidi, J. Goings, B. Peng, A. Petrone, 
 T. Henderson, D. Ranasinghe, V. G. Zakrzewski, J. Gao, N. Rega, 
 G. Zheng, W. Liang, M. Hada, M. Ehara, K. Toyota, R. Fukuda, 
 J. Hasegawa, M. Ishida, T. Nakajima, Y. Honda, O. Kitao, H. Nakai, 
 T. Vreven, K. Throssell, J. A. Montgomery, Jr., J. E. Peralta, 
 F. Ogliaro, M. J. Bearpark, J. J. Heyd, E. N. Brothers, K. N. Kudin, 
 V. N. Staroverov, T. A. Keith, R. Kobayashi, J. Normand, 
 K. Raghavachari, A. P. Rendell, J. C. Burant, S. S. Iyengar, 
 J. Tomasi, M. Cossi, J. M. Millam, M. Klene, C. Adamo, R. Cammi, 
 J. W. Ochterski, R. L. Martin, K. Morokuma, O. Farkas, 
 J. B. Foresman, and D. J. Fox, Gaussian, Inc., Wallingford CT, 2019.
 
 ******************************************
 Gaussian 16:  ES64L-G16RevC.01  3-Jul-2019
                29-Oct-2021 
 ******************************************
 %mem=30GB
 %chk=/home/rong/g16/learning/biphenMeCHNMeCH2CH3-2.chk
 %nprocshared=16
 Will use up to   16 processors via shared memory.
 ----------------------------------------------------
 # opt freq b3lyp/6-31g(d) scrf=(smd,solvent=toluene)
 ----------------------------------------------------
 1/18=20,19=15,26=3,38=1/1,3;
 2/9=110,12=2,17=6,18=5,40=1/2;
 3/5=1,6=6,7=1,11=2,25=1,30=1,70=32201,71=1,72=13,74=-5/1,2,3;
 4//1;
 5/5=2,38=5,53=13/2;
 6/7=2,8=2,9=2,10=2,28=1/1;
 7//1,2,3,16;
 1/18=20,19=15,26=3/3(2);
 2/9=110/2;
 99//99;
 2/9=110/2;
 3/5=1,6=6,7=1,11=2,25=1,30=1,70=32205,71=1,72=13,74=-5/1,2,3;
 4/5=5,16=3,69=1/1;
 5/5=2,38=5,53=13/2;
 7//1,2,3,16;
 1/18=20,19=15,26=3/3(-5);
 2/9=110/2;
 6/7=2,8=2,9=2,10=2,19=2,28=1/1;
 99/9=1/99;
 -----------------
 biphenMeCHNCH2CH3
 -----------------
 Symbolic Z-matrix:
 Charge =  0 Multiplicity = 1
 C                    -1.03738   1.7871   -0.5316 
 C                    -1.35834   3.13846  -0.74531 
 C                    -0.67643   4.13838  -0.06798 
 C                     0.33732   3.79913   0.83112 
 C                     0.68413   2.46465   1.06735 
 C                    -0.01      1.44237   0.37781 
 H                    -2.149     3.37345  -1.45043 
 H                    -0.92785   5.18242  -0.23539 
 H                     0.87185   4.5838    1.36148 
 C                     0.33882   0.00257   0.64943 
 C                     1.37897  -0.64416  -0.05852 
 C                    -0.36863  -0.70397   1.65075 
 C                     1.69934  -1.98066   0.23476 
 C                    -0.02204  -2.03277   1.91732 
 C                     1.00436  -2.67072   1.21681 
 H                     2.5      -2.452    -0.32589 
 H                    -0.56681  -2.57471   2.68689 
 H                     1.25534  -3.70409   1.44131 
 C                     1.79214   2.13988   2.04339 
 H                     1.45721   1.45472   2.83088 
 H                     2.64235   1.65553   1.54771 
 H                     2.16308   3.04987   2.52539 
 C                    -1.49046  -0.05202   2.42682 
 H                    -1.16557   0.872     2.91914 
 H                    -2.33157   0.21856   1.77684 
 H                    -1.87139  -0.72787   3.1989 
 N                     2.26548  -0.45709  -1.24379 
 C                     2.53417   0.91246  -1.79698 
 H                     2.41959   1.60703  -0.99116 
 C                     3.8834    1.21865  -2.47331 
 H                     4.05382   0.51711  -3.26306 
 H                     3.86411   2.21019  -2.87504 
 H                     4.66972   1.14139  -1.75176 
 N                    -1.76767   0.73388  -1.25153 
 C                    -3.18638   0.76182  -0.8559 
 H                    -3.4454    1.78493  -0.67969 
 C                    -4.25877   0.17578  -1.79298 
 H                    -5.23112   0.42053  -1.41944 
 H                    -4.13927   0.58748  -2.77335 
 H                    -4.15102  -0.88786  -1.83724 
 H                    -3.26468   0.244     0.07718 
 H                     1.76702   1.1202   -2.51338 
 C                    -1.17408  -0.20237  -2.21692 
 H                    -0.2109    0.15576  -2.5151 
 H                    -1.07149  -1.16571  -1.76267 
 H                    -1.8078   -0.27865  -3.07569 
 C                     2.88428  -1.62969  -1.87863 
 H                     3.2145   -1.3698   -2.86265 
 H                     3.72135  -1.95116  -1.29479 
 H                     2.1674   -2.42162  -1.94052 
 

 GradGradGradGradGradGradGradGradGradGradGradGradGradGradGradGradGradGrad
 Berny optimization.
 Initialization pass.
                           ----------------------------
                           !    Initial Parameters    !
                           ! (Angstroms and Degrees)  !
 --------------------------                            --------------------------
 ! Name  Definition              Value          Derivative Info.                !
 --------------------------------------------------------------------------------
 ! R1    R(1,2)                  1.4053         estimate D2E/DX2                !
 ! R2    R(1,6)                  1.4147         estimate D2E/DX2                !
 ! R3    R(1,34)                 1.47           estimate D2E/DX2                !
 ! R4    R(2,3)                  1.3869         estimate D2E/DX2                !
 ! R5    R(2,7)                  1.0851         estimate D2E/DX2                !
 ! R6    R(3,4)                  1.3968         estimate D2E/DX2                !
 ! R7    R(3,8)                  1.0869         estimate D2E/DX2                !
 ! R8    R(4,5)                  1.3989         estimate D2E/DX2                !
 ! R9    R(4,9)                  1.0875         estimate D2E/DX2                !
 ! R10   R(5,6)                  1.415          estimate D2E/DX2                !
 ! R11   R(5,19)                 1.5119         estimate D2E/DX2                !
 ! R12   R(6,10)                 1.5061         estimate D2E/DX2                !
 ! R13   R(10,11)                1.4147         estimate D2E/DX2                !
 ! R14   R(10,12)                1.415          estimate D2E/DX2                !
 ! R15   R(11,13)                1.4053         estimate D2E/DX2                !
 ! R16   R(11,27)                1.4919         estimate D2E/DX2                !
 ! R17   R(12,14)                1.3989         estimate D2E/DX2                !
 ! R18   R(12,23)                1.5119         estimate D2E/DX2                !
 ! R19   R(13,15)                1.3869         estimate D2E/DX2                !
 ! R20   R(13,16)                1.0851         estimate D2E/DX2                !
 ! R21   R(14,15)                1.3968         estimate D2E/DX2                !
 ! R22   R(14,17)                1.0875         estimate D2E/DX2                !
 ! R23   R(15,18)                1.0869         estimate D2E/DX2                !
 ! R24   R(19,20)                1.0962         estimate D2E/DX2                !
 ! R25   R(19,21)                1.0969         estimate D2E/DX2                !
 ! R26   R(19,22)                1.0945         estimate D2E/DX2                !
 ! R27   R(23,24)                1.0962         estimate D2E/DX2                !
 ! R28   R(23,25)                1.0969         estimate D2E/DX2                !
 ! R29   R(23,26)                1.0945         estimate D2E/DX2                !
 ! R30   R(27,28)                1.5013         estimate D2E/DX2                !
 ! R31   R(27,47)                1.47           estimate D2E/DX2                !
 ! R32   R(28,29)                1.07           estimate D2E/DX2                !
 ! R33   R(28,30)                1.54           estimate D2E/DX2                !
 ! R34   R(28,42)                1.07           estimate D2E/DX2                !
 ! R35   R(30,31)                1.07           estimate D2E/DX2                !
 ! R36   R(30,32)                1.07           estimate D2E/DX2                !
 ! R37   R(30,33)                1.07           estimate D2E/DX2                !
 ! R38   R(34,35)                1.4731         estimate D2E/DX2                !
 ! R39   R(34,43)                1.47           estimate D2E/DX2                !
 ! R40   R(35,36)                1.07           estimate D2E/DX2                !
 ! R41   R(35,37)                1.54           estimate D2E/DX2                !
 ! R42   R(35,41)                1.07           estimate D2E/DX2                !
 ! R43   R(37,38)                1.07           estimate D2E/DX2                !
 ! R44   R(37,39)                1.07           estimate D2E/DX2                !
 ! R45   R(37,40)                1.07           estimate D2E/DX2                !
 ! R46   R(43,44)                1.07           estimate D2E/DX2                !
 ! R47   R(43,45)                1.07           estimate D2E/DX2                !
 ! R48   R(43,46)                1.07           estimate D2E/DX2                !
 ! R49   R(47,48)                1.07           estimate D2E/DX2                !
 ! R50   R(47,49)                1.07           estimate D2E/DX2                !
 ! R51   R(47,50)                1.07           estimate D2E/DX2                !
 ! A1    A(2,1,6)              119.8643         estimate D2E/DX2                !
 ! A2    A(2,1,34)             120.0678         estimate D2E/DX2                !
 ! A3    A(6,1,34)             120.0678         estimate D2E/DX2                !
 ! A4    A(1,2,3)              120.4455         estimate D2E/DX2                !
 ! A5    A(1,2,7)              118.2596         estimate D2E/DX2                !
 ! A6    A(3,2,7)              121.295          estimate D2E/DX2                !
 ! A7    A(2,3,4)              119.7397         estimate D2E/DX2                !
 ! A8    A(2,3,8)              120.2381         estimate D2E/DX2                !
 ! A9    A(4,3,8)              120.0222         estimate D2E/DX2                !
 ! A10   A(3,4,5)              121.3531         estimate D2E/DX2                !
 ! A11   A(3,4,9)              119.6942         estimate D2E/DX2                !
 ! A12   A(5,4,9)              118.9527         estimate D2E/DX2                !
 ! A13   A(4,5,6)              119.0305         estimate D2E/DX2                !
 ! A14   A(4,5,19)             119.711          estimate D2E/DX2                !
 ! A15   A(6,5,19)             121.2578         estimate D2E/DX2                !
 ! A16   A(1,6,5)              119.5668         estimate D2E/DX2                !
 ! A17   A(1,6,10)             121.1352         estimate D2E/DX2                !
 ! A18   A(5,6,10)             119.2837         estimate D2E/DX2                !
 ! A19   A(6,10,11)            121.1346         estimate D2E/DX2                !
 ! A20   A(6,10,12)            119.2844         estimate D2E/DX2                !
 ! A21   A(11,10,12)           119.5667         estimate D2E/DX2                !
 ! A22   A(10,11,13)           119.8645         estimate D2E/DX2                !
 ! A23   A(10,11,27)           141.0            estimate D2E/DX2                !
 ! A24   A(13,11,27)            98.603          estimate D2E/DX2                !
 ! A25   A(10,12,14)           119.0305         estimate D2E/DX2                !
 ! A26   A(10,12,23)           121.2575         estimate D2E/DX2                !
 ! A27   A(14,12,23)           119.7112         estimate D2E/DX2                !
 ! A28   A(11,13,15)           120.4454         estimate D2E/DX2                !
 ! A29   A(11,13,16)           118.2596         estimate D2E/DX2                !
 ! A30   A(15,13,16)           121.295          estimate D2E/DX2                !
 ! A31   A(12,14,15)           121.353          estimate D2E/DX2                !
 ! A32   A(12,14,17)           118.9529         estimate D2E/DX2                !
 ! A33   A(15,14,17)           119.6941         estimate D2E/DX2                !
 ! A34   A(13,15,14)           119.7397         estimate D2E/DX2                !
 ! A35   A(13,15,18)           120.2383         estimate D2E/DX2                !
 ! A36   A(14,15,18)           120.022          estimate D2E/DX2                !
 ! A37   A(5,19,20)            111.9686         estimate D2E/DX2                !
 ! A38   A(5,19,21)            111.788          estimate D2E/DX2                !
 ! A39   A(5,19,22)            110.7363         estimate D2E/DX2                !
 ! A40   A(20,19,21)           106.586          estimate D2E/DX2                !
 ! A41   A(20,19,22)           107.8683         estimate D2E/DX2                !
 ! A42   A(21,19,22)           107.664          estimate D2E/DX2                !
 ! A43   A(12,23,24)           111.9681         estimate D2E/DX2                !
 ! A44   A(12,23,25)           111.7885         estimate D2E/DX2                !
 ! A45   A(12,23,26)           110.7363         estimate D2E/DX2                !
 ! A46   A(24,23,25)           106.5861         estimate D2E/DX2                !
 ! A47   A(24,23,26)           107.8678         estimate D2E/DX2                !
 ! A48   A(25,23,26)           107.6644         estimate D2E/DX2                !
 ! A49   A(11,27,28)           120.8955         estimate D2E/DX2                !
 ! A50   A(11,27,47)           119.5523         estimate D2E/DX2                !
 ! A51   A(28,27,47)           119.5522         estimate D2E/DX2                !
 ! A52   A(27,28,29)           107.1877         estimate D2E/DX2                !
 ! A53   A(27,28,30)           120.0            estimate D2E/DX2                !
 ! A54   A(27,28,42)           107.1877         estimate D2E/DX2                !
 ! A55   A(29,28,30)           107.1877         estimate D2E/DX2                !
 ! A56   A(29,28,42)           107.5431         estimate D2E/DX2                !
 ! A57   A(30,28,42)           107.1877         estimate D2E/DX2                !
 ! A58   A(28,30,31)           109.4712         estimate D2E/DX2                !
 ! A59   A(28,30,32)           109.4712         estimate D2E/DX2                !
 ! A60   A(28,30,33)           109.4712         estimate D2E/DX2                !
 ! A61   A(31,30,32)           109.4713         estimate D2E/DX2                !
 ! A62   A(31,30,33)           109.4712         estimate D2E/DX2                !
 ! A63   A(32,30,33)           109.4712         estimate D2E/DX2                !
 ! A64   A(1,34,35)            109.4712         estimate D2E/DX2                !
 ! A65   A(1,34,43)            125.2644         estimate D2E/DX2                !
 ! A66   A(35,34,43)           125.2644         estimate D2E/DX2                !
 ! A67   A(34,35,36)           107.1877         estimate D2E/DX2                !
 ! A68   A(34,35,37)           120.0            estimate D2E/DX2                !
 ! A69   A(34,35,41)           107.1877         estimate D2E/DX2                !
 ! A70   A(36,35,37)           107.1877         estimate D2E/DX2                !
 ! A71   A(36,35,41)           107.5431         estimate D2E/DX2                !
 ! A72   A(37,35,41)           107.1877         estimate D2E/DX2                !
 ! A73   A(35,37,38)           109.4712         estimate D2E/DX2                !
 ! A74   A(35,37,39)           109.4712         estimate D2E/DX2                !
 ! A75   A(35,37,40)           109.4712         estimate D2E/DX2                !
 ! A76   A(38,37,39)           109.4713         estimate D2E/DX2                !
 ! A77   A(38,37,40)           109.4712         estimate D2E/DX2                !
 ! A78   A(39,37,40)           109.4712         estimate D2E/DX2                !
 ! A79   A(34,43,44)           109.4712         estimate D2E/DX2                !
 ! A80   A(34,43,45)           109.4712         estimate D2E/DX2                !
 ! A81   A(34,43,46)           109.4712         estimate D2E/DX2                !
 ! A82   A(44,43,45)           109.4713         estimate D2E/DX2                !
 ! A83   A(44,43,46)           109.4712         estimate D2E/DX2                !
 ! A84   A(45,43,46)           109.4712         estimate D2E/DX2                !
 ! A85   A(27,47,48)           109.4712         estimate D2E/DX2                !
 ! A86   A(27,47,49)           109.4712         estimate D2E/DX2                !
 ! A87   A(27,47,50)           109.4712         estimate D2E/DX2                !
 ! A88   A(48,47,49)           109.4713         estimate D2E/DX2                !
 ! A89   A(48,47,50)           109.4712         estimate D2E/DX2                !
 ! A90   A(49,47,50)           109.4712         estimate D2E/DX2                !
 ! D1    D(6,1,2,3)             -0.1479         estimate D2E/DX2                !
 ! D2    D(6,1,2,7)            179.843          estimate D2E/DX2                !
 ! D3    D(34,1,2,3)           179.8521         estimate D2E/DX2                !
 ! D4    D(34,1,2,7)            -0.157          estimate D2E/DX2                !
 ! D5    D(2,1,6,5)              0.1401         estimate D2E/DX2                !
 ! D6    D(2,1,6,10)           178.7573         estimate D2E/DX2                !
 ! D7    D(34,1,6,5)          -179.8599         estimate D2E/DX2                !
 ! D8    D(34,1,6,10)           -1.2427         estimate D2E/DX2                !
 ! D9    D(2,1,34,35)          -63.4768         estimate D2E/DX2                !
 ! D10   D(2,1,34,43)          116.5232         estimate D2E/DX2                !
 ! D11   D(6,1,34,35)          116.5232         estimate D2E/DX2                !
 ! D12   D(6,1,34,43)          -63.4768         estimate D2E/DX2                !
 ! D13   D(1,2,3,4)              0.0885         estimate D2E/DX2                !
 ! D14   D(1,2,3,8)           -179.9625         estimate D2E/DX2                !
 ! D15   D(7,2,3,4)           -179.9022         estimate D2E/DX2                !
 ! D16   D(7,2,3,8)              0.0468         estimate D2E/DX2                !
 ! D17   D(2,3,4,5)             -0.022          estimate D2E/DX2                !
 ! D18   D(2,3,4,9)            179.9719         estimate D2E/DX2                !
 ! D19   D(8,3,4,5)           -179.9711         estimate D2E/DX2                !
 ! D20   D(8,3,4,9)              0.0228         estimate D2E/DX2                !
 ! D21   D(3,4,5,6)              0.0153         estimate D2E/DX2                !
 ! D22   D(3,4,5,19)           179.6981         estimate D2E/DX2                !
 ! D23   D(9,4,5,6)           -179.9787         estimate D2E/DX2                !
 ! D24   D(9,4,5,19)            -0.2959         estimate D2E/DX2                !
 ! D25   D(4,5,6,1)             -0.0742         estimate D2E/DX2                !
 ! D26   D(4,5,6,10)          -178.7172         estimate D2E/DX2                !
 ! D27   D(19,5,6,1)          -179.7519         estimate D2E/DX2                !
 ! D28   D(19,5,6,10)            1.6051         estimate D2E/DX2                !
 ! D29   D(4,5,19,20)          124.5129         estimate D2E/DX2                !
 ! D30   D(4,5,19,21)         -115.9669         estimate D2E/DX2                !
 ! D31   D(4,5,19,22)            4.0826         estimate D2E/DX2                !
 ! D32   D(6,5,19,20)          -55.8116         estimate D2E/DX2                !
 ! D33   D(6,5,19,21)           63.7086         estimate D2E/DX2                !
 ! D34   D(6,5,19,22)         -176.2419         estimate D2E/DX2                !
 ! D35   D(1,6,10,11)           94.4079         estimate D2E/DX2                !
 ! D36   D(1,6,10,12)          -86.9721         estimate D2E/DX2                !
 ! D37   D(5,6,10,11)          -86.971          estimate D2E/DX2                !
 ! D38   D(5,6,10,12)           91.649          estimate D2E/DX2                !
 ! D39   D(6,10,11,13)         178.7559         estimate D2E/DX2                !
 ! D40   D(6,10,11,27)         -11.7699         estimate D2E/DX2                !
 ! D41   D(12,10,11,13)          0.1397         estimate D2E/DX2                !
 ! D42   D(12,10,11,27)        169.614          estimate D2E/DX2                !
 ! D43   D(6,10,12,14)        -178.7163         estimate D2E/DX2                !
 ! D44   D(6,10,12,23)           1.6052         estimate D2E/DX2                !
 ! D45   D(11,10,12,14)         -0.0744         estimate D2E/DX2                !
 ! D46   D(11,10,12,23)       -179.7529         estimate D2E/DX2                !
 ! D47   D(10,11,13,15)         -0.1474         estimate D2E/DX2                !
 ! D48   D(10,11,13,16)        179.8436         estimate D2E/DX2                !
 ! D49   D(27,11,13,15)       -173.4705         estimate D2E/DX2                !
 ! D50   D(27,11,13,16)          6.5205         estimate D2E/DX2                !
 ! D51   D(10,11,27,28)         22.1693         estimate D2E/DX2                !
 ! D52   D(10,11,27,47)       -157.8307         estimate D2E/DX2                !
 ! D53   D(13,11,27,28)       -167.0504         estimate D2E/DX2                !
 ! D54   D(13,11,27,47)         12.9496         estimate D2E/DX2                !
 ! D55   D(10,12,14,15)          0.0159         estimate D2E/DX2                !
 ! D56   D(10,12,14,17)       -179.9781         estimate D2E/DX2                !
 ! D57   D(23,12,14,15)        179.6995         estimate D2E/DX2                !
 ! D58   D(23,12,14,17)         -0.2946         estimate D2E/DX2                !
 ! D59   D(10,12,23,24)        -55.8221         estimate D2E/DX2                !
 ! D60   D(10,12,23,25)         63.6982         estimate D2E/DX2                !
 ! D61   D(10,12,23,26)       -176.2515         estimate D2E/DX2                !
 ! D62   D(14,12,23,24)        124.5016         estimate D2E/DX2                !
 ! D63   D(14,12,23,25)       -115.9781         estimate D2E/DX2                !
 ! D64   D(14,12,23,26)          4.0722         estimate D2E/DX2                !
 ! D65   D(11,13,15,14)          0.0884         estimate D2E/DX2                !
 ! D66   D(11,13,15,18)       -179.9627         estimate D2E/DX2                !
 ! D67   D(16,13,15,14)       -179.9024         estimate D2E/DX2                !
 ! D68   D(16,13,15,18)          0.0465         estimate D2E/DX2                !
 ! D69   D(12,14,15,13)         -0.0225         estimate D2E/DX2                !
 ! D70   D(12,14,15,18)       -179.9715         estimate D2E/DX2                !
 ! D71   D(17,14,15,13)        179.9715         estimate D2E/DX2                !
 ! D72   D(17,14,15,18)          0.0225         estimate D2E/DX2                !
 ! D73   D(11,27,28,29)         26.7123         estimate D2E/DX2                !
 ! D74   D(11,27,28,30)        149.1072         estimate D2E/DX2                !
 ! D75   D(11,27,28,42)        -88.4978         estimate D2E/DX2                !
 ! D76   D(47,27,28,29)       -153.2877         estimate D2E/DX2                !
 ! D77   D(47,27,28,30)        -30.8928         estimate D2E/DX2                !
 ! D78   D(47,27,28,42)         91.5022         estimate D2E/DX2                !
 ! D79   D(11,27,47,48)        162.0139         estimate D2E/DX2                !
 ! D80   D(11,27,47,49)        -77.9861         estimate D2E/DX2                !
 ! D81   D(11,27,47,50)         42.0139         estimate D2E/DX2                !
 ! D82   D(28,27,47,48)        -17.9861         estimate D2E/DX2                !
 ! D83   D(28,27,47,49)        102.0139         estimate D2E/DX2                !
 ! D84   D(28,27,47,50)       -137.9861         estimate D2E/DX2                !
 ! D85   D(27,28,30,31)         55.343          estimate D2E/DX2                !
 ! D86   D(27,28,30,32)        175.3431         estimate D2E/DX2                !
 ! D87   D(27,28,30,33)        -64.657          estimate D2E/DX2                !
 ! D88   D(29,28,30,31)        177.738          estimate D2E/DX2                !
 ! D89   D(29,28,30,32)        -62.262          estimate D2E/DX2                !
 ! D90   D(29,28,30,33)         57.738          estimate D2E/DX2                !
 ! D91   D(42,28,30,31)        -67.0519         estimate D2E/DX2                !
 ! D92   D(42,28,30,32)         52.9481         estimate D2E/DX2                !
 ! D93   D(42,28,30,33)        172.9481         estimate D2E/DX2                !
 ! D94   D(1,34,35,36)          34.3122         estimate D2E/DX2                !
 ! D95   D(1,34,35,37)         156.7072         estimate D2E/DX2                !
 ! D96   D(1,34,35,41)         -80.8979         estimate D2E/DX2                !
 ! D97   D(43,34,35,36)       -145.6878         estimate D2E/DX2                !
 ! D98   D(43,34,35,37)        -23.2928         estimate D2E/DX2                !
 ! D99   D(43,34,35,41)         99.1021         estimate D2E/DX2                !
 ! D100  D(1,34,43,44)         -15.1683         estimate D2E/DX2                !
 ! D101  D(1,34,43,45)         104.8317         estimate D2E/DX2                !
 ! D102  D(1,34,43,46)        -135.1683         estimate D2E/DX2                !
 ! D103  D(35,34,43,44)        164.8317         estimate D2E/DX2                !
 ! D104  D(35,34,43,45)        -75.1683         estimate D2E/DX2                !
 ! D105  D(35,34,43,46)         44.8317         estimate D2E/DX2                !
 ! D106  D(34,35,37,38)       -171.0759         estimate D2E/DX2                !
 ! D107  D(34,35,37,39)        -51.0759         estimate D2E/DX2                !
 ! D108  D(34,35,37,40)         68.9241         estimate D2E/DX2                !
 ! D109  D(36,35,37,38)        -48.6809         estimate D2E/DX2                !
 ! D110  D(36,35,37,39)         71.3191         estimate D2E/DX2                !
 ! D111  D(36,35,37,40)       -168.6809         estimate D2E/DX2                !
 ! D112  D(41,35,37,38)         66.5292         estimate D2E/DX2                !
 ! D113  D(41,35,37,39)       -173.4708         estimate D2E/DX2                !
 ! D114  D(41,35,37,40)        -53.4708         estimate D2E/DX2                !
 --------------------------------------------------------------------------------
 Trust Radius=3.00D-01 FncErr=1.00D-07 GrdErr=1.00D-06 EigMax=2.50D+02 EigMin=1.00D-04
 Number of steps in this run=    265 maximum allowed number of steps=    300.
 GradGradGradGradGradGradGradGradGradGradGradGradGradGradGradGradGradGrad

                          Input orientation:                          
 ---------------------------------------------------------------------
 Center     Atomic      Atomic             Coordinates (Angstroms)
 Number     Number       Type             X           Y           Z
 ---------------------------------------------------------------------
      1          6           0       -1.037376    1.787098   -0.531599
      2          6           0       -1.358343    3.138462   -0.745312
      3          6           0       -0.676435    4.138384   -0.067983
      4          6           0        0.337319    3.799125    0.831116
      5          6           0        0.684126    2.464652    1.067347
      6          6           0       -0.009996    1.442370    0.377814
      7          1           0       -2.148998    3.373448   -1.450431
      8          1           0       -0.927851    5.182419   -0.235391
      9          1           0        0.871845    4.583797    1.361478
     10          6           0        0.338822    0.002575    0.649431
     11          6           0        1.378970   -0.644160   -0.058520
     12          6           0       -0.368626   -0.703972    1.650747
     13          6           0        1.699342   -1.980658    0.234763
     14          6           0       -0.022037   -2.032772    1.917325
     15          6           0        1.004356   -2.670721    1.216813
     16          1           0        2.499998   -2.451997   -0.325893
     17          1           0       -0.566812   -2.574707    2.686894
     18          1           0        1.255341   -3.704091    1.441308
     19          6           0        1.792139    2.139880    2.043391
     20          1           0        1.457210    1.454724    2.830876
     21          1           0        2.642352    1.655528    1.547712
     22          1           0        2.163077    3.049870    2.525390
     23          6           0       -1.490457   -0.052023    2.426817
     24          1           0       -1.165567    0.871999    2.919143
     25          1           0       -2.331566    0.218559    1.776837
     26          1           0       -1.871394   -0.727874    3.198900
     27          7           0        2.265478   -0.457095   -1.243795
     28          6           0        2.534168    0.912463   -1.796984
     29          1           0        2.419586    1.607031   -0.991164
     30          6           0        3.883400    1.218648   -2.473313
     31          1           0        4.053823    0.517106   -3.263057
     32          1           0        3.864112    2.210185   -2.875036
     33          1           0        4.669719    1.141390   -1.751764
     34          7           0       -1.767674    0.733883   -1.251531
     35          6           0       -3.186376    0.761822   -0.855895
     36          1           0       -3.445401    1.784934   -0.679691
     37          6           0       -4.258768    0.175777   -1.792980
     38          1           0       -5.231118    0.420527   -1.419438
     39          1           0       -4.139274    0.587482   -2.773347
     40          1           0       -4.151015   -0.887862   -1.837245
     41          1           0       -3.264678    0.243997    0.077179
     42          1           0        1.767021    1.120204   -2.513384
     43          6           0       -1.174084   -0.202372   -2.216921
     44          1           0       -0.210895    0.155756   -2.515101
     45          1           0       -1.071492   -1.165714   -1.762666
     46          1           0       -1.807797   -0.278650   -3.075693
     47          6           0        2.884279   -1.629688   -1.878626
     48          1           0        3.214505   -1.369805   -2.862655
     49          1           0        3.721351   -1.951160   -1.294790
     50          1           0        2.167400   -2.421618   -1.940523
 ---------------------------------------------------------------------
                    Distance matrix (angstroms):
                    1          2          3          4          5
     1  C    0.000000
     2  C    1.405304   0.000000
     3  C    2.423585   1.386946   0.000000
     4  C    2.791958   2.407670   1.396844   0.000000
     5  C    2.445256   2.812728   2.437516   1.398893   0.000000
     6  C    1.414701   2.440529   2.812715   2.424954   1.415034
     7  H    2.143936   1.085147   2.159799   3.401240   3.897655
     8  H    3.409976   2.150141   1.086851   2.156756   3.417873
     9  H    3.879483   3.391357   2.153816   1.087525   2.147679
    10  C    2.544263   3.828769   4.318605   3.800896   2.521054
    11  C    3.460282   4.719407   5.205527   4.649653   3.378623
    12  C    3.378652   4.635185   5.147542   4.631203   3.389516
    13  C    4.719420   6.042796   6.571047   5.967968   4.635153
    14  C    4.649683   5.967999   6.515585   5.943064   4.631193
    15  C    5.205551   6.571065   7.130195   6.515567   5.147518
    16  H    5.524967   6.805582   7.320476   6.715086   5.423277
    17  H    5.441091   6.711696   7.257200   6.699784   5.439017
    18  H    6.269136   7.644160   8.216699   7.583756   6.206410
    19  C    3.842029   4.324300   3.813893   2.517778   1.511896
    20  H    4.199960   4.852982   4.489750   3.278629   2.174315
    21  H    4.228622   4.843823   4.448527   3.228265   2.172574
    22  H    4.602464   4.806844   3.996658   2.601027   2.157699
    23  C    3.512816   4.501006   4.944307   4.551744   3.593135
    24  H    3.572318   4.313033   4.453251   3.896998   3.063830
    25  H    3.076381   3.979225   4.637655   4.564843   3.826579
    26  H    4.575729   5.546944   5.981715   5.565837   4.611553
    27  N    4.056164   5.129191   5.581739   5.112579   4.047055
    28  C    3.888716   4.605728   4.868674   4.479495   3.746510
    29  H    3.492021   4.083929   4.104310   3.530130   2.825739
    30  C    5.320473   5.843591   5.924743   5.491157   4.931953
    31  H    5.915578   6.519363   6.759993   6.430110   5.822388
    32  H    5.449338   5.715896   5.675744   5.357104   5.071435
    33  H    5.871685   6.429524   6.355978   5.701273   5.058000
    34  N    1.470000   2.491146   3.765929   4.261939   3.792635
    35  C    2.403031   3.000392   4.280395   4.948499   4.645350
    36  H    2.412576   2.488404   3.685118   4.544060   4.535103
    37  C    3.816386   4.276397   5.613464   6.413934   6.152448
    38  H    4.499250   4.779121   6.032747   6.891111   6.734438
    39  H    4.010772   4.284157   5.649705   6.583821   6.445145
    40  H    4.307537   5.020221   6.361301   7.016634   6.561600
    41  H    2.777165   3.562096   4.678282   5.116810   4.637326
    42  H    3.498123   4.119144   4.589104   4.517339   3.975153
    43  C    2.610937   3.655237   4.869061   5.252319   4.620864
    44  H    2.697894   3.653125   4.697493   4.977132   4.354997
    45  H    3.199343   4.432068   5.582247   5.775993   4.926533
    46  H    3.366494   4.160449   5.462279   6.040938   5.558792
    47  C    5.372922   6.482245   7.016250   6.580404   5.503003
    48  H    5.786048   6.761549   7.299983   6.974237   6.045725
    49  H    6.099387   7.211760   7.611053   7.002637   5.856946
    50  H    5.474390   6.691329   7.391037   7.051867   5.926467
                    6          7          8          9         10
     6  C    0.000000
     7  H    3.412751   0.000000
     8  H    3.899544   2.497979   0.000000
     9  H    3.407902   4.300845   2.479364   0.000000
    10  C    1.506141   4.686305   5.405382   4.666768   0.000000
    11  C    2.544253   5.524957   6.269109   5.441057   1.414697
    12  C    2.521063   5.423318   6.206436   5.439020   1.415035
    13  C    3.828763   6.805590   7.644139   6.711654   2.440528
    14  C    3.800901   6.715129   7.583777   6.699774   2.424956
    15  C    4.318605   7.320506   8.216698   7.257170   2.812715
    16  H    4.686296   7.537477   8.369148   7.416231   3.412749
    17  H    4.666776   7.416287   8.297174   7.420959   3.407904
    18  H    5.405383   8.369183   9.303102   8.297140   3.899545
    19  C    2.551148   5.409348   4.674210   2.699013   2.936551
    20  H    2.858384   5.917417   5.383885   3.506120   2.849251
    21  H    2.906725   5.907381   5.325858   3.426971   2.974124
    22  H    3.452301   5.874168   4.660849   2.318384   4.016608
    23  C    2.936561   5.215417   5.899429   5.310955   2.551146
    24  H    2.849389   5.130064   5.346711   4.511630   2.858439
    25  H    2.973998   4.516848   5.537092   5.430439   2.906659
    26  H    4.016626   6.205980   6.900449   6.254224   3.452304
    27  N    3.378664   5.848363   6.558837   5.842965   2.740000
    28  C    3.388705   5.301753   5.714601   5.120341   3.410628
    29  H    2.793580   4.919666   4.955797   4.097751   3.097646
    30  C    4.830892   6.486855   6.623286   5.924468   4.877951
    31  H    5.534139   7.065359   7.466524   6.931759   5.419737
    32  H    5.116571   6.288098   6.226139   5.704011   5.451888
    33  H    5.150285   7.181072   7.068387   5.997190   5.081270
    34  N    2.499230   2.674373   4.639754   5.349459   2.930153
    35  C    3.474848   2.872319   5.002764   5.999449   3.907619
    36  H    3.610772   2.190452   4.251867   5.535217   4.389045
    37  C    4.936463   3.846240   6.211888   7.463540   5.208954
    38  H    5.615549   4.268509   6.526538   7.893825   5.956436
    39  H    5.264180   3.670547   6.153691   7.627492   5.666645
    40  H    5.242567   4.724030   7.057127   8.087027   5.209133
    41  H    3.481297   3.656746   5.472337   6.131403   3.656633
    42  H    3.408902   4.641356   5.380816   5.273744   3.645853
    43  C    3.285259   3.784766   5.743089   6.316500   3.247593
    44  H    3.172490   3.904268   5.565828   5.983957   3.215574
    45  H    3.537024   4.675736   6.530850   6.825959   3.028547
    46  H    4.256843   4.011946   6.218111   7.107205   4.308551
    47  C    4.786010   7.109753   7.977302   7.290786   3.941409
    48  H    5.367157   7.297944   8.184941   7.666598   4.742122
    49  H    5.313813   7.926959   8.580522   7.607963   4.363322
    50  H    5.004613   7.242532   8.385072   7.852229   3.991023
                   11         12         13         14         15
    11  C    0.000000
    12  C    2.445253   0.000000
    13  C    1.405305   2.812727   0.000000
    14  C    2.791957   1.398891   2.407670   0.000000
    15  C    2.423584   2.437515   1.386945   1.396845   0.000000
    16  H    2.143937   3.897653   1.085147   3.401240   2.159798
    17  H    3.879481   2.147680   3.391356   1.087525   2.153816
    18  H    3.409978   3.417872   2.150141   2.156755   1.086851
    19  C    3.512779   3.593128   4.500954   4.551720   4.944261
    20  H    3.572120   3.063715   4.312804   3.896841   4.453041
    21  H    3.076472   3.826728   3.979316   4.564991   4.637775
    22  H    4.575726   4.611491   5.546912   5.565763   5.981653
    23  C    3.842023   1.511896   4.324299   2.517779   3.813894
    24  H    4.199985   2.174310   4.852963   3.278565   4.489694
    25  H    4.228581   2.172578   4.843839   3.228336   4.448589
    26  H    4.602462   2.157698   4.806842   2.601022   3.996656
    27  N    1.491900   3.921457   2.197246   4.208106   3.541915
    28  C    2.603808   4.788102   3.632503   5.385599   4.925699
    29  H    2.649636   4.482696   3.859167   5.260133   5.017690
    30  C    3.946321   6.227686   4.726452   6.715793   6.085485
    31  H    4.332718   6.722690   4.900731   7.067593   6.287348
    32  H    4.717625   6.847708   5.649801   7.488095   6.981740
    33  H    4.109050   6.353532   4.745168   6.749081   6.064613
    34  N    3.636433   3.528170   4.647366   4.554479   5.036686
    35  C    4.843034   4.046173   5.707975   5.051093   5.800060
    36  H    5.436995   4.592618   6.440830   5.747938   6.576467
    37  C    5.955228   5.269385   6.652897   6.049292   6.697901
    38  H    6.832197   5.859553   7.518866   6.654862   7.442228
    39  H    6.272021   5.954683   7.052199   6.769031   7.279711
    40  H    5.814120   5.148434   6.301913   5.697023   6.251696
    41  H    4.729768   3.429559   5.442005   4.368585   5.293297
    42  H    3.047938   5.022808   4.143940   5.724785   5.372815
    43  C    3.372233   3.982364   4.174882   4.665786   4.756982
    44  H    3.033534   4.256559   3.971779   4.946890   4.836630
    45  H    3.030000   3.515483   3.511607   3.923708   3.930838
    46  H    4.403682   4.958967   5.114292   5.585348   5.661786
    47  C    2.559298   4.888232   2.448197   4.797749   3.768237
    48  H    3.429128   5.801117   3.501836   5.810588   4.818631
    49  H    2.953534   5.192261   2.535532   4.933284   3.769348
    50  H    2.706089   4.720059   2.268346   4.452845   3.373944
                   16         17         18         19         20
    16  H    0.000000
    17  H    4.300845   0.000000
    18  H    2.497981   2.479361   0.000000
    19  C    5.215353   5.310939   5.899378   0.000000
    20  H    5.129821   4.511508   5.346497   1.096243   0.000000
    21  H    4.516904   5.430595   5.537206   1.096885   1.758237
    22  H    6.205954   6.254138   6.900378   1.094531   1.770893
    23  C    5.409346   2.699018   4.674210   3.965715   3.335010
    24  H    5.917395   3.506027   5.383808   3.335040   2.688181
    25  H    5.907398   3.427083   5.325943   4.557134   4.122368
    26  H    5.874166   2.318378   4.660844   4.793818   3.997346
    27  N    2.208433   5.287387   4.332798   4.215912   4.572886
    28  C    3.672175   6.471599   5.782258   4.099468   4.782360
    29  H    4.113971   6.319305   5.956544   3.144224   3.944281
    30  C    4.472007   7.798825   6.816474   5.061883   5.837513
    31  H    4.456106   8.143187   6.912385   5.992245   6.690108
    32  H    5.485880   8.571076   7.772720   5.337503   6.238696
    33  H    4.433196   7.805915   6.732932   4.866277   5.605264
    34  N    5.405521   5.282048   6.007130   5.050308   5.252193
    35  C    6.553196   5.526834   6.704503   5.923725   5.969529
    36  H    7.309208   6.215033   7.531600   5.913797   6.038933
    37  C    7.398544   6.423782   7.477927   7.428924   7.462449
    38  H    8.319698   6.898488   8.201858   8.017076   7.991774
    39  H    7.701194   7.250942   8.079776   7.796959   7.967437
    40  H    6.997619   6.013301   6.921613   7.716712   7.663631
    41  H    6.376702   4.694059   6.154577   5.747327   5.598654
    42  H    4.252410   6.792793   6.259012   4.669537   5.363674
    43  C    4.704857   5.481254   5.616652   5.695163   5.928737
    44  H    4.352234   5.885818   5.718517   5.359920   5.748857
    45  H    4.058865   4.694524   4.703505   5.797708   5.861882
    46  H    5.553551   6.326084   6.443582   6.709236   6.967956
    47  C    1.798567   5.800609   4.240112   5.548390   5.807713
    48  H    2.849003   6.822583   5.273643   6.197604   6.594114
    49  H    1.637468   5.884807   4.079241   5.621559   5.809260
    50  H    1.648810   5.377019   3.730063   6.067920   6.188428
                   21         22         23         24         25
    21  H    0.000000
    22  H    1.769109   0.000000
    23  C    4.557266   4.793722   0.000000
    24  H    4.122498   3.997253   1.096245   0.000000
    25  H    5.182397   5.364557   1.096883   1.758237   0.000000
    26  H    5.364786   5.567937   1.094532   1.770889   1.769112
    27  N    3.521039   5.149373   5.267307   5.555952   5.541980
    28  C    3.427950   4.836231   5.913403   5.994291   6.076929
    29  H    2.549091   3.809689   5.451926   5.355753   5.671255
    30  C    4.230805   5.594633   7.382698   7.395324   7.595378
    31  H    5.141182   6.595145   7.964775   8.098616   8.140201
    32  H    4.621800   5.723914   7.867570   7.788512   7.999558
    33  H    3.906545   5.312212   7.538737   7.479338   7.894342
    34  N    5.304104   5.922815   3.771571   4.216175   3.123227
    35  C    6.367897   6.729406   3.783475   4.283307   2.820836
    36  H    6.483735   6.582374   4.104462   4.356914   3.119084
    37  C    7.808671   8.255230   5.051942   5.679500   4.057035
    38  H    8.504160   8.783464   5.386049   5.962870   4.320228
    39  H    8.111888   8.594161   5.870852   6.428711   4.909999
    40  H    8.004787   8.625896   5.095039   5.885001   4.194777
    41  H    6.248831   6.582339   2.959102   3.588511   1.939120
    42  H    4.188708   5.410150   6.032485   6.178513   6.001448
    43  C    5.673574   6.648551   4.656930   5.247237   4.179360
    44  H    5.186211   6.278391   5.109110   5.563758   4.787684
    45  H    5.719323   6.827959   4.355183   5.106903   4.004009
    46  H    6.702294   7.630139   5.516311   6.137956   4.905976
    47  C    4.752995   6.466355   6.337522   6.758570   6.632003
    48  H    5.378785   7.047698   7.200815   7.592094   7.403154
    49  H    4.717230   6.483232   6.679823   7.043395   7.126036
    50  H    5.386695   7.062689   6.169973   6.750772   6.405466
                   26         27         28         29         30
    26  H    0.000000
    27  N    6.076559   0.000000
    28  C    6.859922   1.501300   0.000000
    29  H    6.435910   2.085231   1.070000   0.000000
    30  C    8.311475   2.633914   1.540000   2.119047   0.000000
    31  H    8.855228   2.867869   2.148263   3.003359   1.070000
    32  H    8.855559   3.511547   2.148263   2.449372   1.070000
    33  H    8.413643   2.931478   2.148263   2.420420   1.070000
    34  N    4.685492   4.205330   4.339960   4.285245   5.801930
    35  C    4.515500   5.599905   5.799393   5.670934   7.266806
    36  H    4.882128   6.161091   6.145307   5.875946   7.566313
    37  C    5.606693   6.577835   6.832766   6.876904   8.236828
    38  H    5.825429   7.549835   7.790006   7.753998   9.209891
    39  H    6.522360   6.667197   6.752312   6.872722   8.053055
    40  H    5.530373   6.458260   6.923472   7.079064   8.330294
    41  H    3.554001   5.728797   6.130737   5.942228   7.651795
    42  H    7.020231   2.085231   1.070000   1.726267   2.119047
    43  C    5.485755   3.583636   3.894911   4.206054   5.259580
    44  H    6.015635   2.850303   2.936608   3.368682   4.230218
    45  H    5.044670   3.450614   4.161824   4.524485   5.544471
    46  H    6.290975   4.469816   4.680438   5.076596   5.915614
    47  C    7.015053   1.470000   2.567445   3.388197   3.076510
    48  H    7.938569   2.086720   2.609072   3.604986   2.701684
    49  H    7.277944   2.086720   3.140373   3.800988   3.385685
    50  H    6.752355   2.086720   3.357263   4.146673   4.059564
                   31         32         33         34         35
    31  H    0.000000
    32  H    1.747303   0.000000
    33  H    1.747303   1.747303   0.000000
    34  N    6.163040   6.044192   6.469647   0.000000
    35  C    7.633793   7.475565   7.916115   1.473100   0.000000
    36  H    8.032406   7.643911   8.210887   2.060698   1.070000
    37  C    8.448480   8.443391   8.980645   2.609636   1.540000
    38  H    9.466699   9.383222   9.932606   3.481642   2.148263
    39  H    8.208021   8.166866   8.885314   2.821674   2.148263
    40  H    8.445487   8.655471   9.051548   2.941672   2.148263
    41  H    8.049362   7.962482   8.191764   2.060698   1.070000
    42  H    2.480968   2.390951   3.001029   3.773007   5.235632
    43  C    5.379876   5.624675   6.014325   1.470000   2.613691
    44  H    4.344864   4.577764   5.037316   2.086720   3.460313
    45  H    5.599279   6.082290   6.187436   2.086720   3.001727
    46  H    5.918355   6.197186   6.762212   2.086720   2.812573
    47  C    2.809486   4.086261   3.298904   5.255509   6.604403
    48  H    2.103619   3.638471   3.107705   5.642989   7.038621
    49  H    3.174422   4.453578   3.266817   6.110706   7.434352
    50  H    3.734139   5.020533   4.358011   5.090845   6.322469
                   36         37         38         39         40
    36  H    0.000000
    37  C    2.119047   0.000000
    38  H    2.365928   1.070000   0.000000
    39  H    2.509731   1.070000   1.747303   0.000000
    40  H    2.996942   1.070000   1.747303   1.747303   0.000000
    41  H    1.726267   2.119047   2.477481   3.001399   2.394100
    42  H    5.565397   6.141747   7.117599   5.935966   6.285908
    43  C    3.386937   3.136558   4.181328   3.118626   3.078339
    44  H    4.060170   4.111828   5.145213   3.960459   4.131970
    45  H    3.938858   3.458214   4.465025   3.675113   3.092931
    46  H    3.561033   2.803412   3.866673   2.505471   2.719479
    47  C    7.291223   7.368185   8.382953   7.419343   7.074417
    48  H    7.685835   7.706026   8.753097   7.610322   7.452155
    49  H    8.105497   8.273715   9.262134   8.391678   7.962349
    50  H    7.126592   6.932810   7.942756   7.037216   6.502725
                   41         42         43         44         45
    41  H    0.000000
    42  H    5.726844   0.000000
    43  C    3.135716   3.238394   0.000000
    44  H    4.006655   2.200526   1.070000   0.000000
    45  H    3.190984   3.721042   1.070000   1.747303   0.000000
    46  H    3.512301   3.879730   1.070000   1.747303   1.747303
    47  C    6.719042   3.035307   4.315319   3.629464   3.984575
    48  H    7.295668   2.901266   4.586893   3.765832   4.429605
    49  H    7.450209   3.838966   5.279571   4.625021   4.879260
    50  H    6.378408   3.610121   4.020816   3.553770   3.478412
                   46         47         48         49         50
    46  H    0.000000
    47  C    5.027310   0.000000
    48  H    5.143881   1.070000   0.000000
    49  H    6.044864   1.070000   1.747303   0.000000
    50  H    4.656512   1.070000   1.747303   1.747303   0.000000
 Stoichiometry    C20H28N2
 Framework group  C1[X(C20H28N2)]
 Deg. of freedom   144
 Full point group                 C1      NOp   1
 Largest Abelian subgroup         C1      NOp   1
 Largest concise Abelian subgroup C1      NOp   1
                         Standard orientation:                         
 ---------------------------------------------------------------------
 Center     Atomic      Atomic             Coordinates (Angstroms)
 Number     Number       Type             X           Y           Z
 ---------------------------------------------------------------------
      1          6           0       -1.571780    0.720775   -0.346128
      2          6           0       -2.397857    1.854078   -0.436137
      3          6           0       -2.234165    2.914644    0.442511
      4          6           0       -1.240047    2.855868    1.422025
      5          6           0       -0.398991    1.744257    1.539695
      6          6           0       -0.563800    0.660677    0.644701
      7          1           0       -3.160861    1.873746   -1.207489
      8          1           0       -2.875338    3.789241    0.370249
      9          1           0       -1.112043    3.688089    2.110308
     10          6           0        0.319301   -0.551342    0.784715
     11          6           0        1.582105   -0.613535    0.150029
     12          6           0       -0.111891   -1.632717    1.589095
     13          6           0        2.395672   -1.746714    0.320014
     14          6           0        0.724402   -2.744273    1.737267
     15          6           0        1.970554   -2.805116    1.109112
     16          1           0        3.358111   -1.768017   -0.180787
     17          1           0        0.391599   -3.574802    2.355469
     18          1           0        2.602749   -3.679627    1.238750
     19          6           0        0.669329    1.722793    2.609303
     20          1           0        0.584516    0.841702    3.256014
     21          1           0        1.677349    1.698388    2.177496
     22          1           0        0.601008    2.612471    3.243183
     23          6           0       -1.456255   -1.608968    2.280433
     24          1           0       -1.572978   -0.726295    2.919977
     25          1           0       -2.283780   -1.585882    1.560834
     26          1           0       -1.585595   -2.497091    2.906938
     27          7           0        2.401342    0.097787   -0.874001
     28          6           0        2.129994    1.534099   -1.216464
     29          1           0        1.683158    1.985490   -0.355369
     30          6           0        3.284206    2.450440   -1.663355
     31          1           0        3.783525    2.011928   -2.501977
     32          1           0        2.893171    3.406881   -1.941226
     33          1           0        3.977875    2.569190   -0.857364
     34          7           0       -1.754680   -0.399956   -1.279620
     35          6           0       -3.087182   -0.994695   -1.077756
     36          1           0       -3.752338   -0.198612   -0.815614
     37          6           0       -3.755442   -1.790446   -2.214334
     38          1           0       -4.768105   -2.010651   -1.948021
     39          1           0       -3.741185   -1.209455   -3.112747
     40          1           0       -3.221346   -2.704122   -2.371934
     41          1           0       -3.017244   -1.647877   -0.233148
     42          1           0        1.400316    1.540150   -1.999045
     43          6           0       -0.761525   -0.856563   -2.262500
     44          1           0       -0.008064   -0.106456   -2.383064
     45          1           0       -0.310022   -1.763544   -1.918361
     46          1           0       -1.243580   -1.032050   -3.201503
     47          6           0        3.489001   -0.617401   -1.556940
     48          1           0        3.757159   -0.090858   -2.448984
     49          1           0        4.338475   -0.677252   -0.909088
     50          1           0        3.163065   -1.604670   -1.809851
 ---------------------------------------------------------------------
 Rotational constants (GHZ):           0.3190801           0.2534374           0.2257003
 Standard basis: 6-31G(d) (6D, 7F)
 There are   386 symmetry adapted cartesian basis functions of A   symmetry.
 There are   386 symmetry adapted basis functions of A   symmetry.
   386 basis functions,   728 primitive gaussians,   386 cartesian basis functions
    81 alpha electrons       81 beta electrons
       nuclear repulsion energy      1905.4932932396 Hartrees.
 NAtoms=   50 NActive=   50 NUniq=   50 SFac= 1.00D+00 NAtFMM=   60 NAOKFM=F Big=F
 Integral buffers will be    131072 words long.
 Raffenetti 2 integral format.
 Two-electron integral symmetry is turned on.
 ------------------------------------------------------------------------------
 Polarizable Continuum Model (PCM)
 =================================
 Model                : PCM.
 Atomic radii         : SMD-Coulomb.
 Polarization charges : Total charges.
 Charge compensation  : None.
 Solution method      : On-the-fly selection.
 Cavity type          : VdW (van der Waals Surface) (Alpha=1.000).
 Cavity algorithm     : GePol (No added spheres)
                        Default sphere list used, NSphG=   50.
                        Lebedev-Laikov grids with approx.  5.0 points / Ang**2.
                        Smoothing algorithm: York/Karplus (Gamma=1.0000).
                        Polarization charges: spherical gaussians, with
                                              point-specific exponents (IZeta= 3).
                        Self-potential: point-specific (ISelfS= 7).
                        Self-field    : sphere-specific E.n sum rule (ISelfD= 2).
 1st derivatives      : Analytical E(r).r(x)/FMM algorithm (CHGder, D1EAlg=3).
                        Cavity 1st derivative terms included.
 Solvent              : Toluene, Eps=   2.374100 Eps(inf)=   2.238315
 ------------------------------------------------------------------------------
 ------------------------------------------------------------------------------
 Atomic radii for non-electrostatic terms: SMD-CDS.
 ------------------------------------------------------------------------------
 Nuclear repulsion after PCM non-electrostatic terms =     1905.4824613799 Hartrees.
 One-electron integrals computed using PRISM.
 NBasis=   386 RedAO= T EigKep=  2.96D-04  NBF=   386
 NBsUse=   386 1.00D-06 EigRej= -1.00D+00 NBFU=   386
 ExpMin= 1.61D-01 ExpMax= 4.17D+03 ExpMxC= 6.27D+02 IAcc=3 IRadAn=         5 AccDes= 0.00D+00
 Harris functional with IExCor=  402 and IRadAn=       5 diagonalized for initial guess.
 HarFok:  IExCor=  402 AccDes= 0.00D+00 IRadAn=         5 IDoV= 1 UseB2=F ITyADJ=14
 ICtDFT=  3500011 ScaDFX=  1.000000  1.000000  1.000000  1.000000
 FoFCou: FMM=F IPFlag=           0 FMFlag=      100000 FMFlg1=           0
         NFxFlg=           0 DoJE=T BraDBF=F KetDBF=T FulRan=T
         wScrn=  0.000000 ICntrl=       500 IOpCl=  0 I1Cent=   200000004 NGrid=           0
         NMat0=    1 NMatS0=      1 NMatT0=    0 NMatD0=    1 NMtDS0=    0 NMtDT0=    0
 Petite list used in FoFCou.
 Requested convergence on RMS density matrix=1.00D-08 within 128 cycles.
 Requested convergence on MAX density matrix=1.00D-06.
 Requested convergence on             energy=1.00D-06.
 No special actions if energy rises.
 Inv3:  Mode=1 IEnd=    34639212.
 Iteration    1 A*A^-1 deviation from unit magnitude is 7.44D-15 for   3398.
 Iteration    1 A*A^-1 deviation from orthogonality  is 2.33D-15 for   3389   2339.
 Iteration    1 A^-1*A deviation from unit magnitude is 7.44D-15 for   3398.
 Iteration    1 A^-1*A deviation from orthogonality  is 4.77D-15 for   2703   2636.
 Error on total polarization charges =  0.03822
 SCF Done:  E(RB3LYP) =  -888.409932080     A.U. after   13 cycles
            NFock= 13  Conv=0.66D-08     -V/T= 2.0095
 SMD-CDS (non-electrostatic) energy       (kcal/mol) =      -6.80
 (included in total energy above)

 **********************************************************************

            Population analysis using the SCF Density.

 **********************************************************************

 Orbital symmetries:
       Occupied  (A) (A) (A) (A) (A) (A) (A) (A) (A) (A) (A) (A)
                 (A) (A) (A) (A) (A) (A) (A) (A) (A) (A) (A) (A)
                 (A) (A) (A) (A) (A) (A) (A) (A) (A) (A) (A) (A)
                 (A) (A) (A) (A) (A) (A) (A) (A) (A) (A) (A) (A)
                 (A) (A) (A) (A) (A) (A) (A) (A) (A) (A) (A) (A)
                 (A) (A) (A) (A) (A) (A) (A) (A) (A) (A) (A) (A)
                 (A) (A) (A) (A) (A) (A) (A) (A) (A)
       Virtual   (A) (A) (A) (A) (A) (A) (A) (A) (A) (A) (A) (A)
                 (A) (A) (A) (A) (A) (A) (A) (A) (A) (A) (A) (A)
                 (A) (A) (A) (A) (A) (A) (A) (A) (A) (A) (A) (A)
                 (A) (A) (A) (A) (A) (A) (A) (A) (A) (A) (A) (A)
                 (A) (A) (A) (A) (A) (A) (A) (A) (A) (A) (A) (A)
                 (A) (A) (A) (A) (A) (A) (A) (A) (A) (A) (A) (A)
                 (A) (A) (A) (A) (A) (A) (A) (A) (A) (A) (A) (A)
                 (A) (A) (A) (A) (A) (A) (A) (A) (A) (A) (A) (A)
                 (A) (A) (A) (A) (A) (A) (A) (A) (A) (A) (A) (A)
                 (A) (A) (A) (A) (A) (A) (A) (A) (A) (A) (A) (A)
                 (A) (A) (A) (A) (A) (A) (A) (A) (A) (A) (A) (A)
                 (A) (A) (A) (A) (A) (A) (A) (A) (A) (A) (A) (A)
                 (A) (A) (A) (A) (A) (A) (A) (A) (A) (A) (A) (A)
                 (A) (A) (A) (A) (A) (A) (A) (A) (A) (A) (A) (A)
                 (A) (A) (A) (A) (A) (A) (A) (A) (A) (A) (A) (A)
                 (A) (A) (A) (A) (A) (A) (A) (A) (A) (A) (A) (A)
                 (A) (A) (A) (A) (A) (A) (A) (A) (A) (A) (A) (A)
                 (A) (A) (A) (A) (A) (A) (A) (A) (A) (A) (A) (A)
                 (A) (A) (A) (A) (A) (A) (A) (A) (A) (A) (A) (A)
                 (A) (A) (A) (A) (A) (A) (A) (A) (A) (A) (A) (A)
                 (A) (A) (A) (A) (A) (A) (A) (A) (A) (A) (A) (A)
                 (A) (A) (A) (A) (A) (A) (A) (A) (A) (A) (A) (A)
                 (A) (A) (A) (A) (A) (A) (A) (A) (A) (A) (A) (A)
                 (A) (A) (A) (A) (A) (A) (A) (A) (A) (A) (A) (A)
                 (A) (A) (A) (A) (A) (A) (A) (A) (A) (A) (A) (A)
                 (A) (A) (A) (A) (A)
 The electronic state is 1-A.
 Alpha  occ. eigenvalues --  -14.33382 -14.30853 -10.21818 -10.21121 -10.19903
 Alpha  occ. eigenvalues --  -10.19755 -10.19115 -10.18728 -10.18689 -10.18624
 Alpha  occ. eigenvalues --  -10.18561 -10.18119 -10.17888 -10.17426 -10.17352
 Alpha  occ. eigenvalues --  -10.17041 -10.16991 -10.16833 -10.16578 -10.16378
 Alpha  occ. eigenvalues --  -10.16118 -10.15566  -0.91027  -0.89728  -0.84286
 Alpha  occ. eigenvalues --   -0.82679  -0.76921  -0.75914  -0.75046  -0.73999
 Alpha  occ. eigenvalues --   -0.73349  -0.71468  -0.68479  -0.67701  -0.66563
 Alpha  occ. eigenvalues --   -0.66280  -0.61411  -0.59557  -0.58447  -0.56027
 Alpha  occ. eigenvalues --   -0.55200  -0.54891  -0.51300  -0.48621  -0.47029
 Alpha  occ. eigenvalues --   -0.46587  -0.46079  -0.45838  -0.44549  -0.44016
 Alpha  occ. eigenvalues --   -0.43411  -0.43129  -0.42248  -0.42086  -0.41254
 Alpha  occ. eigenvalues --   -0.40896  -0.40631  -0.39797  -0.39629  -0.39049
 Alpha  occ. eigenvalues --   -0.38477  -0.37551  -0.37093  -0.36727  -0.36254
 Alpha  occ. eigenvalues --   -0.35470  -0.34867  -0.34691  -0.34235  -0.34096
 Alpha  occ. eigenvalues --   -0.33763  -0.33223  -0.32852  -0.32218  -0.30312
 Alpha  occ. eigenvalues --   -0.25822  -0.24040  -0.22996  -0.22581  -0.17512
 Alpha  occ. eigenvalues --   -0.17218
 Alpha virt. eigenvalues --    0.00702   0.01043   0.01213   0.02545   0.08697
 Alpha virt. eigenvalues --    0.09989   0.10686   0.11305   0.11754   0.12777
 Alpha virt. eigenvalues --    0.13487   0.13600   0.14157   0.14691   0.15081
 Alpha virt. eigenvalues --    0.15363   0.16147   0.16947   0.16997   0.17158
 Alpha virt. eigenvalues --    0.17495   0.17877   0.17965   0.18648   0.18939
 Alpha virt. eigenvalues --    0.19118   0.19934   0.20864   0.21181   0.21257
 Alpha virt. eigenvalues --    0.22266   0.22567   0.22779   0.23546   0.23909
 Alpha virt. eigenvalues --    0.24141   0.25145   0.25862   0.27084   0.27591
 Alpha virt. eigenvalues --    0.28701   0.29477   0.29695   0.30593   0.31631
 Alpha virt. eigenvalues --    0.33706   0.34260   0.35726   0.37958   0.38419
 Alpha virt. eigenvalues --    0.39547   0.40429   0.42718   0.45146   0.48421
 Alpha virt. eigenvalues --    0.48472   0.49606   0.50272   0.50518   0.51798
 Alpha virt. eigenvalues --    0.52669   0.53017   0.53965   0.54365   0.55147
 Alpha virt. eigenvalues --    0.55541   0.56264   0.57011   0.57578   0.58169
 Alpha virt. eigenvalues --    0.58389   0.58718   0.59279   0.59624   0.60380
 Alpha virt. eigenvalues --    0.60819   0.61215   0.61889   0.62005   0.62755
 Alpha virt. eigenvalues --    0.62920   0.63618   0.64549   0.66433   0.66716
 Alpha virt. eigenvalues --    0.67358   0.68057   0.69262   0.70277   0.71465
 Alpha virt. eigenvalues --    0.72388   0.73485   0.74287   0.74759   0.75032
 Alpha virt. eigenvalues --    0.75719   0.77263   0.78178   0.78579   0.80220
 Alpha virt. eigenvalues --    0.81024   0.82248   0.83456   0.83928   0.84536
 Alpha virt. eigenvalues --    0.84760   0.85623   0.86644   0.88051   0.88314
 Alpha virt. eigenvalues --    0.89218   0.90421   0.91113   0.91563   0.91744
 Alpha virt. eigenvalues --    0.91949   0.92071   0.92418   0.93057   0.93307
 Alpha virt. eigenvalues --    0.93705   0.94215   0.94875   0.94933   0.95709
 Alpha virt. eigenvalues --    0.96530   0.97353   0.98200   0.98789   0.99578
 Alpha virt. eigenvalues --    0.99814   1.01009   1.02131   1.02417   1.03058
 Alpha virt. eigenvalues --    1.03554   1.04473   1.05259   1.07166   1.07737
 Alpha virt. eigenvalues --    1.09030   1.09271   1.10332   1.12463   1.13655
 Alpha virt. eigenvalues --    1.14595   1.16260   1.17447   1.17928   1.19417
 Alpha virt. eigenvalues --    1.20696   1.22251   1.23042   1.23584   1.25170
 Alpha virt. eigenvalues --    1.25594   1.28016   1.28961   1.32048   1.33644
 Alpha virt. eigenvalues --    1.34638   1.35221   1.37248   1.40310   1.40934
 Alpha virt. eigenvalues --    1.42531   1.42857   1.43882   1.45241   1.47599
 Alpha virt. eigenvalues --    1.48681   1.48968   1.50640   1.50933   1.51280
 Alpha virt. eigenvalues --    1.53797   1.54772   1.58291   1.60047   1.60222
 Alpha virt. eigenvalues --    1.62016   1.64702   1.65668   1.68837   1.71994
 Alpha virt. eigenvalues --    1.73933   1.74845   1.76621   1.79514   1.81106
 Alpha virt. eigenvalues --    1.81714   1.84356   1.85074   1.86124   1.86653
 Alpha virt. eigenvalues --    1.88661   1.89809   1.90340   1.91539   1.91831
 Alpha virt. eigenvalues --    1.92834   1.93247   1.93713   1.95207   1.96313
 Alpha virt. eigenvalues --    1.97287   1.97890   1.98498   1.99059   2.00885
 Alpha virt. eigenvalues --    2.01418   2.02971   2.05787   2.06677   2.09046
 Alpha virt. eigenvalues --    2.10762   2.11392   2.11528   2.12427   2.12850
 Alpha virt. eigenvalues --    2.15415   2.16086   2.18781   2.18868   2.19432
 Alpha virt. eigenvalues --    2.21343   2.22599   2.22708   2.23943   2.24684
 Alpha virt. eigenvalues --    2.25366   2.25806   2.27461   2.28884   2.30100
 Alpha virt. eigenvalues --    2.31689   2.32667   2.32850   2.33083   2.33828
 Alpha virt. eigenvalues --    2.34257   2.35179   2.35937   2.36783   2.37468
 Alpha virt. eigenvalues --    2.38737   2.39820   2.40411   2.42479   2.43318
 Alpha virt. eigenvalues --    2.43794   2.45323   2.47451   2.49216   2.51173
 Alpha virt. eigenvalues --    2.53446   2.58719   2.59849   2.61859   2.64178
 Alpha virt. eigenvalues --    2.64839   2.65610   2.68859   2.69316   2.70499
 Alpha virt. eigenvalues --    2.71774   2.73801   2.75171   2.79422   2.80380
 Alpha virt. eigenvalues --    2.81126   2.82244   2.86596   2.88216   2.90118
 Alpha virt. eigenvalues --    2.91511   2.94759   2.99063   3.11181   3.16121
 Alpha virt. eigenvalues --    3.22693   3.41182   3.46576   4.02111   4.08194
 Alpha virt. eigenvalues --    4.11751   4.12064   4.16511   4.17263   4.20311
 Alpha virt. eigenvalues --    4.23727   4.24360   4.25150   4.29845   4.34225
 Alpha virt. eigenvalues --    4.34370   4.36891   4.43396   4.44155   4.47333
 Alpha virt. eigenvalues --    4.49134   4.52817   4.55086   4.79807   4.85726
          Condensed to atoms (all electrons):
               1          2          3          4          5          6
     1  C    4.716175   0.501345  -0.008396  -0.057227  -0.006007   0.473068
     2  C    0.501345   5.051332   0.499280  -0.031189  -0.045416  -0.052155
     3  C   -0.008396   0.499280   4.941410   0.500137  -0.018439  -0.044594
     4  C   -0.057227  -0.031189   0.500137   5.033999   0.523391  -0.015563
     5  C   -0.006007  -0.045416  -0.018439   0.523391   4.740213   0.493216
     6  C    0.473068  -0.052155  -0.044594  -0.015563   0.493216   5.132832
     7  H   -0.035925   0.345586  -0.041537   0.004405   0.000636   0.005658
     8  H    0.002786  -0.035098   0.352824  -0.037768   0.003118   0.001170
     9  H    0.000696   0.004520  -0.046793   0.353205  -0.037521   0.005406
    10  C   -0.068485   0.007974  -0.000609   0.008937  -0.077238   0.322389
    11  C   -0.000909   0.000020   0.000020   0.000051  -0.005455  -0.070542
    12  C   -0.003947   0.000075   0.000040   0.000068  -0.004125  -0.065284
    13  C    0.000015   0.000005  -0.000000   0.000006   0.000125   0.005790
    14  C   -0.000032   0.000003   0.000000   0.000004   0.000079   0.009394
    15  C    0.000033  -0.000000   0.000000  -0.000000   0.000041  -0.000291
    16  H   -0.000001  -0.000000   0.000000  -0.000000  -0.000003  -0.000148
    17  H   -0.000003  -0.000000   0.000000  -0.000000  -0.000002  -0.000154
    18  H   -0.000000   0.000000  -0.000000   0.000000   0.000000   0.000011
    19  C    0.008186  -0.000146   0.008223  -0.069640   0.353563  -0.061007
    20  H   -0.000095   0.000026  -0.000194   0.001507  -0.023314  -0.006142
    21  H   -0.000192   0.000046  -0.000210   0.000481  -0.024328  -0.004632
    22  H   -0.000086   0.000003   0.000242  -0.002816  -0.029698   0.003608
    23  C    0.001483  -0.000089  -0.000032  -0.000183  -0.000012  -0.018539
    24  H   -0.000320  -0.000045   0.000009   0.000128   0.002966   0.004204
    25  H    0.001535   0.000016  -0.000005   0.000002  -0.000232   0.000848
    26  H    0.000052  -0.000002  -0.000001  -0.000002   0.000050   0.000656
    27  N    0.000223  -0.000007   0.000001   0.000004  -0.000035  -0.006144
    28  C    0.000540   0.000076   0.000003  -0.000340  -0.002186   0.001905
    29  H   -0.000282  -0.000256   0.000038   0.001089   0.005064   0.001703
    30  C    0.000029   0.000000  -0.000003  -0.000003   0.000065   0.000090
    31  H   -0.000001   0.000000   0.000000  -0.000000  -0.000001  -0.000002
    32  H    0.000000   0.000000   0.000000   0.000001   0.000005   0.000007
    33  H   -0.000000  -0.000000   0.000000  -0.000000  -0.000002  -0.000004
    34  N    0.298844  -0.074759   0.006033   0.000165   0.006270  -0.073031
    35  C   -0.038709  -0.011854   0.000030   0.000010  -0.000099   0.001563
    36  H   -0.003492   0.007350  -0.001166   0.000020   0.000020  -0.001379
    37  C    0.002619   0.000427  -0.000008  -0.000000   0.000003  -0.000145
    38  H   -0.000053  -0.000022   0.000000  -0.000000  -0.000000   0.000003
    39  H    0.000081   0.000032   0.000003   0.000000  -0.000000   0.000005
    40  H   -0.000077  -0.000014  -0.000000   0.000000   0.000000   0.000002
    41  H   -0.001058   0.000196   0.000120  -0.000014  -0.000113   0.003201
    42  H    0.000436   0.000164   0.000017  -0.000054  -0.000090  -0.000206
    43  C   -0.028703   0.002731  -0.000101   0.000006  -0.000106  -0.004629
    44  H   -0.000124   0.000584  -0.000064  -0.000006  -0.000073   0.000656
    45  H    0.000104  -0.000187   0.000011  -0.000000  -0.000034   0.001507
    46  H    0.002110   0.000127  -0.000006  -0.000000   0.000010  -0.000112
    47  C   -0.000011  -0.000000   0.000000  -0.000000  -0.000010  -0.000126
    48  H    0.000000   0.000000   0.000000  -0.000000  -0.000000  -0.000005
    49  H    0.000000  -0.000000  -0.000000   0.000000   0.000000   0.000001
    50  H    0.000000   0.000000   0.000000  -0.000000  -0.000000   0.000018
               7          8          9         10         11         12
     1  C   -0.035925   0.002786   0.000696  -0.068485  -0.000909  -0.003947
     2  C    0.345586  -0.035098   0.004520   0.007974   0.000020   0.000075
     3  C   -0.041537   0.352824  -0.046793  -0.000609   0.000020   0.000040
     4  C    0.004405  -0.037768   0.353205   0.008937   0.000051   0.000068
     5  C    0.000636   0.003118  -0.037521  -0.077238  -0.005455  -0.004125
     6  C    0.005658   0.001170   0.005406   0.322389  -0.070542  -0.065284
     7  H    0.590056  -0.005358  -0.000185  -0.000149  -0.000000  -0.000003
     8  H   -0.005358   0.586984  -0.004850   0.000013   0.000000   0.000000
     9  H   -0.000185  -0.004850   0.602132  -0.000167  -0.000003  -0.000003
    10  C   -0.000149   0.000013  -0.000167   5.144273   0.449897   0.510002
    11  C   -0.000000   0.000000  -0.000003   0.449897   4.719867   0.000117
    12  C   -0.000003   0.000000  -0.000003   0.510002   0.000117   4.672131
    13  C   -0.000000   0.000000  -0.000000  -0.047390   0.474526  -0.043399
    14  C   -0.000000   0.000000  -0.000000  -0.010536  -0.061453   0.528213
    15  C    0.000000  -0.000000   0.000000  -0.044996  -0.030768  -0.020104
    16  H    0.000000  -0.000000   0.000000   0.003622  -0.042851   0.000943
    17  H    0.000000  -0.000000   0.000000   0.006109   0.000518  -0.039305
    18  H   -0.000000  -0.000000  -0.000000   0.001100   0.004319   0.003456
    19  C    0.000011  -0.000210  -0.010846  -0.014783   0.000011   0.000165
    20  H   -0.000000   0.000002   0.000130   0.003200  -0.000030   0.002873
    21  H    0.000000   0.000003   0.000220   0.002131   0.001822  -0.000298
    22  H   -0.000000  -0.000009   0.007088   0.000710   0.000092   0.000050
    23  C    0.000001  -0.000000   0.000000  -0.063604   0.008660   0.361700
    24  H   -0.000001  -0.000000   0.000004  -0.006371  -0.000314  -0.022414
    25  H    0.000001   0.000000  -0.000001  -0.004228  -0.000117  -0.026199
    26  H    0.000000   0.000000   0.000000   0.003673  -0.000096  -0.029261
    27  N    0.000000  -0.000000   0.000000  -0.059940   0.275541   0.002996
    28  C   -0.000001  -0.000000  -0.000002  -0.005189  -0.023853  -0.000166
    29  H    0.000001  -0.000001  -0.000009  -0.001126  -0.003125   0.000011
    30  C    0.000000   0.000000  -0.000000   0.000158   0.001700   0.000003
    31  H    0.000000  -0.000000  -0.000000  -0.000005  -0.000017  -0.000000
    32  H   -0.000000   0.000000   0.000000  -0.000005  -0.000042  -0.000000
    33  H   -0.000000  -0.000000   0.000000   0.000000   0.000044   0.000000
    34  N   -0.003044  -0.000124   0.000004  -0.012580  -0.001287   0.001925
    35  C    0.000303  -0.000004   0.000000   0.000455  -0.000012   0.000153
    36  H    0.001017   0.000045  -0.000000   0.000077  -0.000001   0.000005
    37  C   -0.000394   0.000000   0.000000  -0.000022  -0.000000  -0.000005
    38  H    0.000024   0.000000  -0.000000   0.000000   0.000000  -0.000000
    39  H    0.000220  -0.000000  -0.000000  -0.000000   0.000000   0.000000
    40  H   -0.000008   0.000000   0.000000   0.000001   0.000000   0.000000
    41  H    0.000370  -0.000002  -0.000000  -0.000288  -0.000003   0.000788
    42  H   -0.000001   0.000000   0.000001   0.001234   0.000274   0.000003
    43  C    0.000172   0.000002   0.000000   0.001439   0.000617  -0.000081
    44  H    0.000038   0.000001  -0.000000  -0.001274  -0.001386   0.000087
    45  H    0.000014  -0.000000   0.000000   0.001117   0.001694  -0.000095
    46  H   -0.000109   0.000000   0.000000   0.000209   0.000138   0.000022
    47  C    0.000000  -0.000000   0.000000   0.002287  -0.048502   0.000057
    48  H    0.000000  -0.000000   0.000000   0.000017   0.002872   0.000001
    49  H    0.000000  -0.000000  -0.000000  -0.000300  -0.001297  -0.000006
    50  H   -0.000000  -0.000000   0.000000   0.000497  -0.002065  -0.000090
              13         14         15         16         17         18
     1  C    0.000015  -0.000032   0.000033  -0.000001  -0.000003  -0.000000
     2  C    0.000005   0.000003  -0.000000  -0.000000  -0.000000   0.000000
     3  C   -0.000000   0.000000   0.000000   0.000000   0.000000  -0.000000
     4  C    0.000006   0.000004  -0.000000  -0.000000  -0.000000   0.000000
     5  C    0.000125   0.000079   0.000041  -0.000003  -0.000002   0.000000
     6  C    0.005790   0.009394  -0.000291  -0.000148  -0.000154   0.000011
     7  H   -0.000000  -0.000000   0.000000   0.000000   0.000000  -0.000000
     8  H    0.000000   0.000000  -0.000000  -0.000000  -0.000000  -0.000000
     9  H   -0.000000  -0.000000   0.000000   0.000000   0.000000  -0.000000
    10  C   -0.047390  -0.010536  -0.044996   0.003622   0.006109   0.001100
    11  C    0.474526  -0.061453  -0.030768  -0.042851   0.000518   0.004319
    12  C   -0.043399   0.528213  -0.020104   0.000943  -0.039305   0.003456
    13  C    5.113250  -0.028724   0.533914   0.361935   0.005004  -0.038935
    14  C   -0.028724   5.043635   0.500153   0.004366   0.352262  -0.039910
    15  C    0.533914   0.500153   4.941691  -0.034656  -0.048175   0.350699
    16  H    0.361935   0.004366  -0.034656   0.609761  -0.000188  -0.005249
    17  H    0.005004   0.352262  -0.048175  -0.000188   0.613957  -0.005253
    18  H   -0.038935  -0.039910   0.350699  -0.005249  -0.005253   0.604522
    19  C   -0.000193  -0.000168  -0.000028   0.000002   0.000000  -0.000000
    20  H   -0.000027   0.000125  -0.000005  -0.000002   0.000006  -0.000000
    21  H   -0.000070   0.000003   0.000011   0.000004  -0.000001  -0.000000
    22  H    0.000001  -0.000003  -0.000001   0.000000   0.000000  -0.000000
    23  C   -0.000256  -0.068831   0.008706   0.000005  -0.011226  -0.000199
    24  H    0.000052   0.001595  -0.000215   0.000000   0.000167   0.000003
    25  H    0.000030   0.000170  -0.000190  -0.000000   0.000210   0.000003
    26  H    0.000003  -0.003015   0.000184  -0.000000   0.007191  -0.000013
    27  N   -0.060361   0.000311   0.008420  -0.038571   0.000005  -0.000190
    28  C    0.005043   0.000012  -0.000268   0.001201  -0.000000   0.000003
    29  H    0.000554  -0.000004  -0.000009   0.000012   0.000000   0.000000
    30  C   -0.000291  -0.000000   0.000002  -0.000032   0.000000  -0.000000
    31  H    0.000001   0.000000  -0.000000   0.000006   0.000000  -0.000000
    32  H    0.000004   0.000000  -0.000000   0.000001  -0.000000   0.000000
    33  H   -0.000011   0.000000   0.000001  -0.000033  -0.000000  -0.000000
    34  N   -0.000006  -0.000195   0.000027  -0.000001   0.000001   0.000000
    35  C    0.000000  -0.000004   0.000001  -0.000000  -0.000000  -0.000000
    36  H    0.000000  -0.000001   0.000000  -0.000000   0.000000   0.000000
    37  C    0.000000  -0.000001   0.000000   0.000000  -0.000000   0.000000
    38  H    0.000000  -0.000000  -0.000000  -0.000000   0.000000   0.000000
    39  H   -0.000000   0.000000  -0.000000   0.000000  -0.000000  -0.000000
    40  H   -0.000000  -0.000000   0.000000  -0.000000   0.000000   0.000000
    41  H   -0.000002   0.000122  -0.000004   0.000000  -0.000001  -0.000000
    42  H    0.000063  -0.000003   0.000022  -0.000148   0.000000  -0.000000
    43  C   -0.000476  -0.000029  -0.000086   0.000002  -0.000001  -0.000000
    44  H   -0.000243   0.000014  -0.000008   0.000009   0.000000   0.000000
    45  H    0.000602   0.000362   0.000151  -0.000015   0.000002  -0.000001
    46  H    0.000010  -0.000005  -0.000002   0.000000   0.000000  -0.000000
    47  C   -0.048063  -0.000045   0.000347   0.009438  -0.000001   0.000058
    48  H    0.004514   0.000002  -0.000063   0.002762  -0.000000  -0.000002
    49  H   -0.018485  -0.000013   0.000251   0.005597   0.000000   0.000028
    50  H   -0.000890  -0.000122   0.001489  -0.022571   0.000002   0.000060
              19         20         21         22         23         24
     1  C    0.008186  -0.000095  -0.000192  -0.000086   0.001483  -0.000320
     2  C   -0.000146   0.000026   0.000046   0.000003  -0.000089  -0.000045
     3  C    0.008223  -0.000194  -0.000210   0.000242  -0.000032   0.000009
     4  C   -0.069640   0.001507   0.000481  -0.002816  -0.000183   0.000128
     5  C    0.353563  -0.023314  -0.024328  -0.029698  -0.000012   0.002966
     6  C   -0.061007  -0.006142  -0.004632   0.003608  -0.018539   0.004204
     7  H    0.000011  -0.000000   0.000000  -0.000000   0.000001  -0.000001
     8  H   -0.000210   0.000002   0.000003  -0.000009  -0.000000  -0.000000
     9  H   -0.010846   0.000130   0.000220   0.007088   0.000000   0.000004
    10  C   -0.014783   0.003200   0.002131   0.000710  -0.063604  -0.006371
[...]
 ,0.00001022,-0.00001149,0.00000313,0.00001770,-0.00000759,-0.00001234,
 -0.00005158,-0.00002482,0.00000193,0.00103461,0.00045145,-0.00197935,-
 0.00049017,0.00003302,0.00015512,0.00138672,0.00055548,0.00003157,-0.0
 0030012,-0.00013885,0.00021940,-0.00028367,-0.00000077,-0.00009948,0.0
 4381671,0.55712349,0.00033929,0.00027152,0.00010263,0.00000124,-0.0001
 6254,-0.00005427,0.00015802,0.00011809,0.00011407,-0.00020803,0.000127
 85,-0.00003728,-0.00002049,-0.00034486,-0.00023132,-0.00018496,-0.0001
 2331,0.00013518,-0.00004162,0.00002226,-0.00001714,-0.00001839,0.00004
 094,0.00000475,0.00000579,0.00002959,0.00001328,-0.00180323,0.00272991
 ,-0.00032393,0.01547006,-0.01949665,-0.03566131,0.00155865,0.00037209,
 -0.00028964,-0.00103961,-0.00133863,-0.00214770,0.00002079,-0.00042747
 ,0.00031165,0.00018268,-0.00160709,-0.00028667,0.00100549,0.00026923,-
 0.00282830,0.00008630,0.00002987,0.00005976,-0.00011185,-0.00019518,0.
 00027064,0.00000903,-0.00009438,0.00002477,-0.00000519,0.00002875,0.00
 005359,-0.00007312,0.00005851,-0.00007138,0.00000753,0.00003703,0.0000
 0729,0.00000928,0.00013715,-0.00009318,-0.00000741,-0.00000117,-0.0000
 0948,0.00000199,0.00000816,0.00000052,0.00000943,-0.00006959,-0.000011
 69,0.02776830,-0.04808799,-0.13720690,-0.00520794,-0.00843504,0.002517
 10,0.00106414,0.00342638,-0.00006209,0.00063713,0.00178664,-0.00007138
 ,0.00018336,-0.00042589,0.00004075,0.00118117,0.00039928,0.00023911,-0
 .00012531,-0.00015001,-0.00004927,-0.00039713,-0.00033893,-0.00015572,
 0.00030556,0.00001652,0.00014269,-0.00005063,0.00004991,-0.00000944,-0
 .00005195,0.00001514,0.00001613,-0.00003207,0.00000836,-0.00002913,0.0
 0000281,0.00001222,0.00001102,0.00000786,-0.00002805,-0.00000316,-0.00
 004573,-0.00002507,-0.00001786,0.00077181,0.00312684,0.00054745,-0.000
 18800,0.00010232,0.00000661,0.00102270,0.00036717,0.00039068,-0.000158
 31,-0.00010355,0.00006171,-0.00028422,-0.00006559,-0.00006212,0.004992
 73,-0.05957413,0.54594557,0.00010653,0.00014094,0.00007953,-0.00000889
 ,-0.00004395,-0.00003837,0.00002392,0.00003219,0.00001188,-0.00001637,
 0.00001348,-0.00000599,-0.00003023,0.00001816,-0.00001943,0.00006234,-
 0.00008662,0.00003768,-0.00001527,0.00001153,0.00000379,-0.00000264,0.
 00000249,0.00000124,-0.00000525,0.00000825,0.00000050,0.00042053,-0.00
 027641,0.00013698,0.00026888,0.00197078,0.00113071,-0.00011053,-0.0003
 0576,0.00023403,-0.00019709,0.00045575,0.00078270,-0.00030310,0.000320
 54,0.00014575,0.00041093,-0.00014596,-0.00049259,0.00005497,-0.0004078
 1,-0.00001398,0.00001334,-0.00001280,-0.00000175,0.00001732,-0.0000084
 4,0.00002885,-0.00000023,0.00000607,-0.00000644,-0.00000062,-0.0000068
 1,-0.00000997,-0.00001331,-0.00000548,-0.00000293,-0.00000043,0.000010
 30,0.00000044,-0.00000885,-0.00006162,-0.00000475,-0.00000283,0.000012
 99,0.00000330,-0.00002120,0.00001038,0.00000719,-0.00001177,0.00000299
 ,0.00001509,-0.00110617,-0.00373402,0.01302792,-0.00003738,-0.00072482
 ,-0.00078850,-0.00012774,-0.00001869,-0.00006805,0.00004066,0.00000383
 ,-0.00007405,-0.00011848,0.00008364,-0.00008227,0.00005904,-0.00000871
 ,0.00003926,-0.00004313,0.00006774,0.00011283,-0.00003561,-0.00006635,
 -0.00011652,0.00001216,-0.00003074,0.00001427,0.00000805,-0.00000589,-
 0.00000657,-0.00000109,0.00001136,0.00001081,0.00000544,-0.00000099,-0
 .00000905,-0.00000441,0.00000747,0.00000235,-0.00000950,-0.00001367,-0
 .00000903,-0.00000973,0.00000254,0.00000003,0.00026072,-0.00000403,-0.
 00019513,-0.00014722,0.00004780,0.00003914,0.00012117,-0.00004118,0.00
 021458,0.00008250,0.00002308,-0.00005059,-0.00008365,-0.00001707,-0.00
 002683,-0.05117324,0.00248644,-0.00801875,0.05019687,0.00001296,-0.000
 00182,0.00000968,0.00000661,-0.00000423,0.00000828,0.00000531,-0.00000
 384,0.00000093,-0.00001328,-0.00001078,-0.00000268,0.00000159,-0.00001
 664,0.00002305,-0.00012837,0.00008779,-0.00001653,0.00000058,-0.000001
 05,-0.00000126,0.00000017,0.00000078,0.00000031,0.00000190,-0.00000491
 ,-0.00000241,0.00034086,0.00052302,-0.00110182,-0.00000915,-0.00371915
 ,-0.00202062,0.00033690,-0.00033240,0.00042800,0.00086434,-0.00049611,
 0.00069686,-0.00028285,0.00024521,-0.00003688,0.00023182,0.00039740,-0
 .00017951,-0.00076308,0.00027767,0.00034129,-0.00006049,0.00001011,0.0
 0000396,0.00004312,0.00002852,0.00000200,-0.00000222,0.00001186,-0.000
 00599,-0.00000179,-0.00000535,0.00000350,0.00000167,0.00000679,-0.0000
 0780,-0.00000131,-0.00000393,-0.00000190,-0.00000086,0.00007979,-0.000
 06798,-0.00000648,0.00000523,0.00000729,-0.00001037,0.00000239,0.00001
 161,0.00001415,-0.00001732,-0.00002305,0.00190206,0.00783658,-0.027720
 88,0.00007376,0.00100209,-0.00278352,0.00012580,0.00040444,-0.00029380
 ,0.00002976,-0.00025599,0.00041938,0.00002629,-0.00001651,0.00005560,-
 0.00007442,-0.00000418,-0.00002497,0.00014503,-0.00000790,0.00001843,-
 0.00003392,-0.00000456,-0.00001915,0.00001770,0.00000164,0.00001406,-0
 .00000392,0.00000206,-0.00000280,-0.00000358,0.00000757,0.00000337,-0.
 00000070,-0.00000074,-0.00000233,0.00000022,0.,0.00000027,-0.00000062,
 -0.00000423,-0.00000202,-0.00000100,-0.00000065,-0.00000038,0.00006257
 ,-0.00050353,0.00027705,-0.00000843,0.00000512,0.00006338,0.00001506,-
 0.00003058,0.00001503,0.00002015,0.00000512,-0.00002260,-0.00003502,0.
 00000101,-0.00001388,0.00095474,-0.09981154,0.10667312,-0.00599318,0.1
 0702927,-0.00008582,-0.00018053,-0.00006908,0.00001659,0.00006218,0.00
 005791,-0.00004753,-0.00006512,-0.00003466,0.00003356,-0.00008525,0.00
 002346,0.00006458,0.00000912,0.00009882,-0.00017405,0.00013991,-0.0000
 9668,0.00002561,-0.00001865,-0.00000140,0.00000782,-0.00001303,-0.0000
 0306,0.00000927,-0.00002610,-0.00001199,-0.00027625,0.00064702,-0.0007
 7495,-0.00172461,-0.00394599,-0.00070702,0.00028706,0.00001817,0.00007
 623,0.00044510,-0.00001800,-0.00004408,0.00013492,-0.00007170,-0.00024
 762,-0.00013960,-0.00008144,0.00019235,0.00008248,-0.00001713,0.000115
 37,0.00003669,0.00001704,-0.00002693,-0.00000573,0.00006090,-0.0000615
 7,-0.00000216,-0.00001486,0.00000302,-0.00001631,0.00001491,0.00003200
 ,0.00001624,0.00003083,-0.00002542,-0.00000195,-0.00003260,-0.00000746
 ,0.00000122,0.00009306,-0.00001201,0.00001465,-0.00003263,-0.00002701,
 0.00004482,-0.00001903,-0.00001834,0.00003023,-0.00001647,-0.00004072,
 0.00669610,0.00393489,-0.02667800,0.00062969,0.00222195,0.00007368,0.0
 0019823,-0.00007694,0.00064265,-0.00034241,-0.00029447,-0.00010283,-0.
 00013069,0.00004968,-0.00016744,-0.00009047,-0.00001621,0.00001729,0.0
 0008739,0.00004418,0.00013267,0.00007642,0.00007190,0.00010673,-0.0000
 7145,0.00002443,-0.00003849,0.00000228,-0.00000353,0.00000425,0.000010
 69,-0.00000468,-0.00000748,0.00000333,-0.00000227,0.00001172,0.0000030
 9,-0.00001251,-0.00000190,0.00000441,0.00001398,0.00000569,0.00001068,
 -0.00000093,0.00000426,-0.00029192,-0.00108866,0.00048572,0.00011266,0
 .00003157,-0.00005822,-0.00022811,-0.00006336,-0.00013175,-0.00002704,
 -0.00002540,0.00003106,0.00009237,0.00001211,0.00003669,-0.00638202,0.
 09952801,-0.25959714,0.00180982,-0.10539438,0.28988692,-0.00000931,-0.
 00000065,-0.00003639,0.00000661,-0.00001189,0.00001168,0.00002291,0.00
 002862,0.00002584,-0.00002984,0.00004992,0.00000758,-0.00006965,-0.000
 09681,-0.00009926,0.00013246,-0.00013757,0.00002453,-0.00000698,0.0000
 0572,-0.00000901,-0.00000346,0.00001585,-0.00000155,0.00000304,0.00002
 124,0.00000562,-0.00028250,-0.00022505,0.00104482,0.00123802,0.0020747
 5,-0.00400866,0.00012174,0.00031195,-0.00022826,-0.00105854,0.00032919
 ,0.00049243,0.00000246,-0.00015274,0.00010940,0.00015592,-0.00065250,-
 0.00022389,0.00048765,-0.00068852,0.00028803,0.00008809,-0.00001518,0.
 00000342,-0.00003035,-0.00004721,0.00006911,-0.00001407,-0.00002054,0.
 00002266,0.00000800,0.00000823,0.00001174,-0.00002058,0.00000260,-0.00
 001495,0.00000874,0.00001989,0.00000575,-0.00000861,-0.00006961,0.0000
 3166,-0.00000020,0.00000494,-0.00000656,0.00000215,0.00000194,-0.00000
 387,-0.00002439,-0.00000398,0.00002617,-0.00523905,0.01174145,0.011097
 07,-0.00088607,-0.00239145,0.00067693,0.00022632,0.00030452,0.00008525
 ,-0.00066390,0.00057769,0.00018069,0.00003454,-0.00114559,-0.00094878,
 0.00073149,0.00001866,-0.00003408,-0.00008232,-0.00001154,0.00002628,-
 0.00008609,0.00003014,0.00005527,0.00012648,0.00002616,0.00002929,-0.0
 0002351,0.00002164,0.00000356,-0.00002289,-0.00000641,-0.00000840,-0.0
 0002116,0.00000500,-0.00000397,0.00000543,-0.00000133,0.00000061,0.000
 01287,0.00000351,0.00000973,-0.00000827,-0.00001376,-0.00000758,0.0001
 3506,0.00018627,-0.00025640,0.00010000,-0.00012128,-0.00007747,0.00039
 068,0.00008273,0.00010078,-0.00003192,0.00002877,-0.00000664,-0.000023
 81,0.00000303,-0.00000160,-0.25133161,0.07258561,-0.04318344,-0.000237
 12,-0.00057719,-0.00143244,0.27604010,-0.00017224,-0.00020325,-0.00004
 787,0.00001060,0.00009864,0.00003283,-0.00006558,-0.00006088,-0.000054
 21,0.00006913,-0.00008131,0.00001574,0.00004731,0.00010961,0.00015350,
 -0.00010748,0.00025063,-0.00001339,0.00001592,-0.00001502,0.00000608,0
 .00000595,-0.00001394,-0.00000022,0.00000398,-0.00002615,-0.00001195,0
 .00035419,0.00009031,-0.00123744,-0.00084429,-0.00198667,0.00492733,-0
 .00016621,-0.00033349,0.00010942,-0.00051886,0.00081909,-0.00078119,0.
 00013916,0.00015147,-0.00025319,0.00005324,0.00031092,0.00029164,-0.00
 029651,0.00027060,0.00046388,-0.00001764,0.00000422,-0.00003528,-0.000
 04075,0.00002951,-0.00008910,0.00002033,0.00001057,-0.00003221,-0.0000
 1747,-0.00000354,-0.00000014,0.00002097,0.00001067,0.00000504,-0.00000
 744,-0.00002753,-0.00000676,0.00000522,0.00007199,-0.00003060,0.000007
 48,-0.00001614,-0.00000471,0.00001932,-0.00001354,-0.00000803,0.000031
 58,0.00000407,-0.00003136,0.02384552,-0.01570988,-0.00683758,0.0038000
 1,0.00263121,0.00001640,-0.00048002,-0.00036727,-0.00021862,-0.0005587
 9,0.00000013,-0.00023978,-0.00126357,-0.00056053,-0.00003310,-0.000155
 94,0.00031086,0.00022492,-0.00002544,-0.00001657,0.00000153,0.00003320
 ,0.00016120,0.00008503,-0.00009481,0.00002626,-0.00001071,-0.00000135,
 -0.00001083,-0.00000107,0.00001582,-0.00000805,-0.00000378,0.00001332,
 -0.00000090,0.00000614,-0.00000405,0.00000430,-0.00000205,-0.00000452,
 0.00000291,0.00000382,0.00002125,0.00000854,0.00000025,-0.00007612,-0.
 00025360,0.00021314,0.00027957,0.00006155,-0.00000780,-0.00041481,-0.0
 0028666,-0.00015316,0.00006388,0.00003127,-0.00004912,0.00008610,0.000
 00845,0.00002012,0.07392729,-0.07937682,0.01681206,0.01409260,-0.00441
 347,0.00436828,-0.08920269,0.08836854,-0.00012981,-0.00009183,-0.00003
 933,-0.00000412,0.00005269,0.00001704,-0.00003565,-0.00003676,-0.00002
 973,0.00004614,-0.00002915,0.00001247,0.00001405,0.00008233,0.00005781
 ,-0.00003584,0.00010881,0.00000319,0.00000973,-0.00000636,0.00000253,0
 .00000273,-0.00000607,-0.00000161,-0.00000013,-0.00000640,-0.00000274,
 0.00012088,-0.00012232,-0.00121258,0.00053537,-0.00129547,0.00318803,-
 0.00006450,-0.00056961,0.00021013,0.00010620,0.00054404,0.00012017,-0.
 00028315,0.00034726,0.00004670,-0.00024884,-0.00021622,-0.00045736,0.0
 0124039,0.00094265,-0.00177690,0.00009325,0.00007251,0.00004492,0.0000
 2419,0.00005391,-0.00005030,0.00000033,0.00001540,-0.00001472,0.000001
 07,-0.00000744,-0.00000865,0.00000996,-0.00001215,0.00001549,-0.000004
 38,-0.00000362,-0.00000061,0.00004360,0.00005106,-0.00001933,-0.000004
 91,0.00000451,0.00000314,0.00000855,-0.00000427,-0.00000779,0.00002197
 ,0.00000644,-0.00001994,0.02584829,-0.01352412,0.00191258,0.00119636,0
 .00179143,0.00028377,-0.00014766,-0.00024530,0.00003983,-0.00082397,0.
 00007489,0.00025160,-0.00027947,-0.00036417,-0.00010042,0.00007156,0.0
 0006770,-0.00010236,-0.00011346,-0.00005694,-0.00015495,0.00002320,0.0
 0009261,0.00007770,-0.00004347,0.00002118,-0.00001956,-0.00000001,-0.0
 0000425,0.00000356,0.00000639,-0.00000773,-0.00000757,0.00000107,-0.00
 000030,0.00000759,0.00000156,-0.00000462,-0.00000273,0.00000386,0.0000
 0967,0.00000436,0.00001169,0.00000197,0.00000275,-0.00025276,-0.000414
 67,-0.00020077,0.00012871,0.00008180,-0.00000217,-0.00033275,-0.000180
 96,-0.00013097,0.00002195,0.00000238,0.00001104,0.00008675,0.00002265,
 0.00000748,-0.04258421,0.01589510,-0.06114430,-0.02800416,0.00986735,-
 0.00505413,0.04184354,-0.01326663,0.06389978,0.00006812,0.00006885,0.0
 0003853,-0.00000015,-0.00001867,-0.00001870,0.00000471,0.00000603,0.00
 000216,-0.00000210,-0.00001133,-0.00000346,-0.00000140,0.00000891,-0.0
 0000158,-0.00003370,0.00001422,0.00001326,-0.00000175,0.00000201,0.000
 00202,-0.00000117,-0.00000209,0.00000130,-0.00000081,0.00000091,0.0000
 0104,0.00000211,0.00003296,-0.00029690,0.00086319,-0.00010870,0.000601
 95,-0.00001780,-0.00004050,0.00002640,0.00052105,-0.00023907,0.0001957
 6,-0.00003071,-0.00000750,-0.00010468,-0.00004802,0.00018210,0.0001812
 9,-0.00065047,0.00014925,0.00011494,-0.00002979,0.00000997,0.00001985,
 0.00001514,0.00001105,-0.00000585,-0.00000782,0.00000124,0.00000940,-0
 .00000028,-0.00000175,-0.00000704,-0.00000323,-0.00000893,-0.00000763,
 0.00000033,0.00000245,-0.00000112,0.00000215,0.00004845,-0.00002499,-0
 .00001522,0.00000929,0.00002038,-0.00001973,0.00000239,0.00001547,0.00
 000326,-0.00000040,-0.00000173,0.00897241,0.01010766,-0.00098965,-0.00
 021036,0.00144406,0.00125458,0.00027092,0.00050778,0.00006797,-0.00025
 483,0.00028619,0.00031158,0.00035635,-0.00015478,-0.00028288,0.0002190
 7,-0.00014340,-0.00010241,0.00001448,-0.00001531,-0.00003435,0.0000752
 4,0.00002767,0.00000937,-0.00003666,-0.00004627,-0.00002448,0.00002103
 ,-0.00001083,-0.00000035,0.00000749,0.00000370,0.00000076,0.00000556,-
 0.00000264,0.00000112,-0.00000077,0.00000045,-0.00000008,-0.00000523,-
 0.00000128,-0.00000413,-0.00000195,0.00000488,0.00000249,-0.00007548,0
 .00000972,0.00006194,0.00004172,-0.00021123,-0.00003557,0.00001450,0.0
 0031134,0.00007456,-0.00004301,0.00004726,0.00000513,0.00000997,-0.000
 00190,-0.00000333,-0.17084652,-0.13487283,0.00445423,0.00171774,0.0027
 7712,0.00048255,-0.01986459,-0.02244633,0.00186992,0.17899705,-0.00032
 389,-0.00031527,-0.00019166,0.00001447,0.00010980,0.00005075,-0.000040
 51,-0.00003066,-0.00002250,0.00004984,0.00004840,0.00000183,0.00000817
 ,-0.00000085,-0.00000694,0.00004154,0.00003221,-0.00004977,0.00000999,
 -0.00001183,0.00000404,0.00000462,0.00000021,0.00000167,0.00000030,-0.
 00000181,0.00000534,0.00066627,0.00001584,-0.00048164,-0.00063220,-0.0
 0021906,0.00265790,-0.00007818,-0.00021237,0.00024939,0.00017857,0.000
 36441,0.00031499,-0.00002057,0.00021491,-0.00016644,0.00011270,0.00012
 260,0.00006936,0.00004418,0.00029053,0.00034416,-0.00001464,-0.0000004
 2,-0.00000759,-0.00002257,0.00000639,-0.00003614,0.00000125,0.00003821
 ,0.00001370,0.00001324,-0.00001067,-0.00001956,0.00004173,-0.00003383,
 0.00004148,0.00000246,-0.00000750,-0.00000030,-0.00003574,0.00002239,-
 0.00005354,-0.00000162,0.00000550,0.00001376,-0.00001157,-0.00000261,0
 .00001241,0.00000312,0.00000083,-0.00000840,-0.01327288,-0.02414097,-0
 .00150322,0.00197294,-0.00140303,-0.00464373,-0.00098459,-0.00107864,-
 0.00008610,0.00048153,-0.00024797,-0.00002934,-0.00020565,0.00018647,0
 .00018012,-0.00028572,0.00007401,0.00009362,-0.00005239,0.00002086,-0.
 00004568,-0.00008421,0.00025413,0.00017445,0.00001890,0.00009617,0.000
 03973,-0.00004130,0.00001508,0.00000490,-0.00000572,-0.00002307,-0.000
 01367,-0.00000533,0.00000615,0.00000327,-0.00000050,0.00000841,-0.0000
 0430,0.00000936,0.00000895,0.00001746,0.00002736,0.00000099,-0.0000079
 5,0.00007004,0.00034801,-0.00017111,0.00048481,0.00006759,-0.00008978,
 -0.00013287,-0.00050499,-0.00008578,0.00004615,0.00006318,-0.00003429,
 0.00005479,0.00003171,0.00002250,-0.12965460,-0.19543764,0.00401818,-0
 .00782235,-0.00830007,0.00022774,0.00710346,0.00993852,0.00026699,0.14
 226783,0.21959080,-0.00000458,0.00005343,0.00000395,-0.00000583,-0.000
 01495,-0.00001526,0.00000841,0.00001543,0.00000886,-0.00000228,0.00003
 612,-0.00001198,-0.00001504,0.00000942,-0.00002824,-0.00002271,-0.0000
 8355,-0.00000799,-0.00000655,0.00000762,0.00000110,-0.00000064,0.00000
 200,0.00000139,-0.00000394,0.00000723,0.00000256,0.00047240,-0.0003423
 3,-0.00051014,-0.00202181,-0.00166159,0.00149130,0.00001104,-0.0005056
 4,0.00062115,-0.00006626,0.00038580,-0.00004307,-0.00050065,0.00060412
 ,0.00014316,0.00060413,0.00026367,-0.00077706,-0.00075342,-0.00019480,
 -0.00102868,-0.00004513,-0.00000441,0.00000682,0.00001562,-0.00000980,
 0.00000525,0.00000134,0.00001912,0.00001354,0.00000796,-0.00000751,-0.
 00001415,-0.00000362,-0.00000993,0.00003119,-0.00000130,0.00000830,0.0
 0000341,0.00002425,-0.00002009,-0.00000164,-0.00000766,0.00002378,0.00
 001417,-0.00001656,0.00000919,0.00000300,-0.00000792,0.00000223,0.0000
 0906,-0.01365696,-0.02122051,-0.00209909,0.00161691,-0.00137337,-0.003
 66323,-0.00055628,-0.00092010,0.00044060,0.00015595,-0.00018414,0.0002
 0207,-0.00010661,0.00008910,-0.00003336,-0.00009523,0.00003022,0.00004
 329,0.00001416,0.00001030,0.00002197,-0.00002958,0.00002614,-0.0000654
 1,0.00002184,-0.00000289,0.00001038,-0.00000082,-0.00000187,-0.0000043
 0,-0.00000534,0.00000841,0.00000656,0.00000055,-0.00000020,-0.00000497
 ,-0.00000151,0.00000271,-0.00000065,-0.00000240,-0.00000602,-0.0000042
 8,-0.00000053,0.00000038,0.00000070,0.00008575,0.00003481,0.00071575,-
 0.00002161,-0.00002652,0.00008538,0.00005811,-0.00013506,0.00011879,0.
 00010301,0.00005758,-0.00006065,-0.00008805,0.00001705,-0.00003197,0.0
 0827969,0.00956221,-0.05054514,0.02015504,0.02080533,0.00200887,-0.005
 69627,-0.00429609,0.00033785,-0.00788906,-0.00107033,0.05259913\\0.000
 02087,0.00000822,0.00000607,-0.00000248,0.00000490,-0.00000192,-0.0000
 0228,-0.00000122,-0.00000192,0.00000089,-0.00000265,-0.00000267,0.0000
 0514,0.00000358,0.00000029,-0.00000655,-0.00000443,-0.00000511,-0.0000
 0003,-0.00000034,0.00000205,-0.00000032,0.00000024,-0.00000132,-0.0000
 0116,0.00000117,-0.00000178,-0.00000291,0.00000260,0.00000908,-0.00001
 133,-0.00000234,-0.00000184,0.00000018,-0.00000200,0.00000081,0.000003
 88,-0.00000004,0.00000277,0.00000223,0.00000064,-0.00000108,0.00000127
 ,0.00000128,0.00000103,0.00000252,0.00000192,0.00000145,0.00000047,0.0
 0000197,0.00000146,0.00000152,0.00000177,0.00000140,-0.00000154,0.0000
 0189,0.00000132,0.00000079,0.00000027,-0.00000239,0.00000086,0.0000022
 5,-0.00000329,-0.00000118,0.00000089,-0.00000165,0.00000140,0.00000225
 ,0.00000011,0.00000062,0.00000124,-0.00000095,0.00000020,-0.00000003,0
 .00000080,0.00000094,0.00000150,0.00000097,0.00000771,0.00000854,-0.00
 000466,0.00000002,-0.00001014,0.00000172,-0.00000134,0.00000617,0.0000
 0318,0.00000435,0.00000492,-0.00000106,-0.00000131,0.00000057,-0.00000
 003,-0.00000097,0.00000009,-0.00000133,-0.00000010,0.00000085,-0.00000
 245,-0.00002540,-0.00001411,-0.00000601,0.00000133,0.00000321,0.000004
 34,-0.00000290,-0.00000026,-0.00000060,0.00000395,-0.00000391,-0.00000
 245,-0.00000020,-0.00000215,0.00000149,-0.00000206,-0.00000274,0.00000
 104,-0.00000126,-0.00000230,0.00000071,-0.00000172,0.00000042,0.000001
 58,-0.00000057,-0.00000039,0.00000004,0.00000716,-0.00000793,-0.000007
 60,-0.00000106,-0.00000214,0.00000016,0.00000242,0.00000118,0.00000048
 ,-0.00000011,0.00000093,0.00000745,-0.00000494,-0.00000139,0.00000216,
 -0.00000053,-0.00000288,-0.00000141,0.00000115,-0.00000094,-0.00000048
 ,0.00000237,-0.00000113,0.00000004\\\@
 The archive entry for this job was punched.


 ... I FELL INTO A REVERIE ... THE ATOMS WERE GAMBOLING BEFORE MY EYES
 ... I SAW HOW TWO SMALL ONES UNITED TO FORM A PAIR;
 HOW THE LARGER ONES SEIZED TWO OF THE SMALLER ONES;
 HOW STILL LARGER ONES KEPT HOLD OF THREE OR FOUR
 SMALLER ONES ... I SAW HOW THE LARGER ONES FORMED A CHAIN ...
 THIS WAS THE ORIGIN OF THE STRUCTURE THEORY.

                                   -- C.F.KEKULE VON STRADONITZ
 Job cpu time:       0 days  4 hours  1 minutes 33.5 seconds.
 Elapsed time:       0 days  0 hours 15 minutes 11.7 seconds.
 File lengths (MBytes):  RWF=   1051 Int=      0 D2E=      0 Chk=     29 Scr=      1
 Normal termination of Gaussian 16 at Fri Oct 29 14:43:38 2021.
