 Entering Gaussian System, Link 0=/home/rong/g16/g16
 Input=/home/rong/g16/learning/biphenMeCHNBnCH2CH3-2.gjf
 Output=/home/rong/g16/learning/biphenMeCHNBnCH2CH3-2.log
 Initial command:
 /home/rong/g16/l1.exe "/tmp/Gau-574782.inp" -scrdir="/tmp/"
 Entering Link 1 = /home/rong/g16/l1.exe PID=    574784.
  
 Copyright (c) 1988-2019, Gaussian, Inc.  All Rights Reserved.
  
 This is part of the Gaussian(R) 16 program.  It is based on
 the Gaussian(R) 09 system (copyright 2009, Gaussian, Inc.),
 the Gaussian(R) 03 system (copyright 2003, Gaussian, Inc.),
 the Gaussian(R) 98 system (copyright 1998, Gaussian, Inc.),
 the Gaussian(R) 94 system (copyright 1995, Gaussian, Inc.),
 the Gaussian 92(TM) system (copyright 1992, Gaussian, Inc.),
 the Gaussian 90(TM) system (copyright 1990, Gaussian, Inc.),
 the Gaussian 88(TM) system (copyright 1988, Gaussian, Inc.),
 the Gaussian 86(TM) system (copyright 1986, Carnegie Mellon
 University), and the Gaussian 82(TM) system (copyright 1983,
 Carnegie Mellon University). Gaussian is a federally registered
 trademark of Gaussian, Inc.
  
 This software contains proprietary and confidential information,
 including trade secrets, belonging to Gaussian, Inc.
  
 This software is provided under written license and may be
 used, copied, transmitted, or stored only in accord with that
 written license.
  
 The following legend is applicable only to US Government
 contracts under FAR:
  
                    RESTRICTED RIGHTS LEGEND
  
 Use, reproduction and disclosure by the US Government is
 subject to restrictions as set forth in subparagraphs (a)
 and (c) of the Commercial Computer Software - Restricted
 Rights clause in FAR 52.227-19.
  
 Gaussian, Inc.
 340 Quinnipiac St., Bldg. 40, Wallingford CT 06492
  
  
 ---------------------------------------------------------------
 Warning -- This program may not be used in any manner that
 competes with the business of Gaussian, Inc. or will provide
 assistance to any competitor of Gaussian, Inc.  The licensee
 of this program is prohibited from giving any competitor of
 Gaussian, Inc. access to this program.  By using this program,
 the user acknowledges that Gaussian, Inc. is engaged in the
 business of creating and licensing software in the field of
 computational chemistry and represents and warrants to the
 licensee that it is not a competitor of Gaussian, Inc. and that
 it will not use this program in any manner prohibited above.
 ---------------------------------------------------------------
  

 Cite this work as:
 Gaussian 16, Revision C.01,
 M. J. Frisch, G. W. Trucks, H. B. Schlegel, G. E. Scuseria, 
 M. A. Robb, J. R. Cheeseman, G. Scalmani, V. Barone, 
 G. A. Petersson, H. Nakatsuji, X. Li, M. Caricato, A. V. Marenich, 
 J. Bloino, B. G. Janesko, R. Gomperts, B. Mennucci, H. P. Hratchian, 
 J. V. Ortiz, A. F. Izmaylov, J. L. Sonnenberg, D. Williams-Young, 
 F. Ding, F. Lipparini, F. Egidi, J. Goings, B. Peng, A. Petrone, 
 T. Henderson, D. Ranasinghe, V. G. Zakrzewski, J. Gao, N. Rega, 
 G. Zheng, W. Liang, M. Hada, M. Ehara, K. Toyota, R. Fukuda, 
 J. Hasegawa, M. Ishida, T. Nakajima, Y. Honda, O. Kitao, H. Nakai, 
 T. Vreven, K. Throssell, J. A. Montgomery, Jr., J. E. Peralta, 
 F. Ogliaro, M. J. Bearpark, J. J. Heyd, E. N. Brothers, K. N. Kudin, 
 V. N. Staroverov, T. A. Keith, R. Kobayashi, J. Normand, 
 K. Raghavachari, A. P. Rendell, J. C. Burant, S. S. Iyengar, 
 J. Tomasi, M. Cossi, J. M. Millam, M. Klene, C. Adamo, R. Cammi, 
 J. W. Ochterski, R. L. Martin, K. Morokuma, O. Farkas, 
 J. B. Foresman, and D. J. Fox, Gaussian, Inc., Wallingford CT, 2019.
 
 ******************************************
 Gaussian 16:  ES64L-G16RevC.01  3-Jul-2019
                29-Oct-2021 
 ******************************************
 %mem=30GB
 %chk=/home/rong/g16/learning/biphenMeCHNBnCH2CH3-2.chk
 %nprocshared=16
 Will use up to   16 processors via shared memory.
 ----------------------------------------------------
 # opt freq b3lyp/6-31g(d) scrf=(smd,solvent=toluene)
 ----------------------------------------------------
 1/18=20,19=15,26=3,38=1/1,3;
 2/9=110,12=2,17=6,18=5,40=1/2;
 3/5=1,6=6,7=1,11=2,25=1,30=1,70=32201,71=1,72=13,74=-5/1,2,3;
 4//1;
 5/5=2,38=5,53=13/2;
 6/7=2,8=2,9=2,10=2,28=1/1;
 7//1,2,3,16;
 1/18=20,19=15,26=3/3(2);
 2/9=110/2;
 99//99;
 2/9=110/2;
 3/5=1,6=6,7=1,11=2,25=1,30=1,70=32205,71=1,72=13,74=-5/1,2,3;
 4/5=5,16=3,69=1/1;
 5/5=2,38=5,53=13/2;
 7//1,2,3,16;
 1/18=20,19=15,26=3/3(-5);
 2/9=110/2;
 6/7=2,8=2,9=2,10=2,19=2,28=1/1;
 99/9=1/99;
 -----------------
 biphenMeCHNCH2CH3
 -----------------
 Symbolic Z-matrix:
 Charge =  0 Multiplicity = 1
 C                    -1.03738   1.7871   -0.5316 
 C                    -1.35834   3.13846  -0.74531 
 C                    -0.67643   4.13838  -0.06798 
 C                     0.33732   3.79913   0.83112 
 C                     0.68413   2.46465   1.06735 
 C                    -0.01      1.44237   0.37781 
 H                    -2.149     3.37345  -1.45043 
 H                    -0.92785   5.18242  -0.23539 
 H                     0.87185   4.5838    1.36148 
 C                     0.33882   0.00257   0.64943 
 C                     1.37897  -0.64416  -0.05852 
 C                    -0.36863  -0.70397   1.65075 
 C                     1.69934  -1.98066   0.23476 
 C                    -0.02204  -2.03277   1.91732 
 C                     1.00436  -2.67072   1.21681 
 H                     2.5      -2.452    -0.32589 
 H                    -0.56681  -2.57471   2.68689 
 H                     1.25534  -3.70409   1.44131 
 C                     1.79214   2.13988   2.04339 
 H                     1.45721   1.45472   2.83088 
 H                     2.64235   1.65553   1.54771 
 H                     2.16308   3.04987   2.52539 
 C                    -1.49046  -0.05202   2.42682 
 H                    -1.16557   0.872     2.91914 
 H                    -2.33157   0.21856   1.77684 
 H                    -1.87139  -0.72787   3.1989 
 N                     2.26548  -0.45709  -1.24379 
 C                     2.53417   0.91246  -1.79698 
 H                     2.41959   1.60703  -0.99116 
 C                     3.8834    1.21865  -2.47331 
 H                     4.05382   0.51711  -3.26306 
 H                     3.86411   2.21019  -2.87504 
 H                     4.66972   1.14139  -1.75176 
 N                    -1.76767   0.73388  -1.25153 
 C                    -3.18638   0.76182  -0.8559 
 H                    -3.4454    1.78493  -0.67969 
 C                    -4.25877   0.17578  -1.79298 
 H                    -5.23112   0.42053  -1.41944 
 H                    -4.13927   0.58748  -2.77335 
 H                    -4.15102  -0.88786  -1.83724 
 H                    -3.26468   0.244     0.07718 
 H                     1.76702   1.1202   -2.51338 
 C                    -1.17408  -0.20237  -2.21692 
 H                    -0.2109    0.15576  -2.5151 
 H                    -1.07149  -1.16571  -1.76267 
 C                     2.88428  -1.62969  -1.87863 
 H                     3.72135  -1.95116  -1.29479 
 H                     2.1674   -2.42162  -1.94052 
 C                    -2.08616  -0.31216  -3.45291 
 C                    -2.77858  -1.49666  -3.70583 
 C                    -2.22012   0.77259  -4.31947 
 C                    -3.60422  -1.59654  -4.82545 
 H                    -2.67215  -2.35194  -3.02288 
 C                    -3.04675   0.67318  -5.43894 
 H                    -1.6746    1.7063   -4.12018 
 C                    -3.73866  -0.51117  -5.69212 
 H                    -4.14954  -2.53036  -5.02522 
 H                    -3.1525    1.52876  -6.12179 
 H                    -4.38976  -0.59014  -6.57481 
 C                     3.35956  -1.25565  -3.29489 
 C                     4.67312  -0.83307  -3.50094 
 C                     2.4769   -1.33943  -4.37167 
 C                     5.10365  -0.49372  -4.7834 
 H                     5.36852  -0.76639  -2.6517 
 C                     2.90769  -1.00096  -5.65474 
 H                     1.44163  -1.67264  -4.20948 
 C                     4.22079  -0.57802  -5.86074 
 H                     6.13882  -0.16003  -4.94578 
 H                     2.21165  -1.06751  -6.50361 
 H                     4.56049  -0.31046  -6.87183 
 

 GradGradGradGradGradGradGradGradGradGradGradGradGradGradGradGradGradGrad
 Berny optimization.
 Initialization pass.
                           ----------------------------
                           !    Initial Parameters    !
                           ! (Angstroms and Degrees)  !
 --------------------------                            --------------------------
 ! Name  Definition              Value          Derivative Info.                !
 --------------------------------------------------------------------------------
 ! R1    R(1,2)                  1.4053         estimate D2E/DX2                !
 ! R2    R(1,6)                  1.4147         estimate D2E/DX2                !
 ! R3    R(1,34)                 1.47           estimate D2E/DX2                !
 ! R4    R(2,3)                  1.3869         estimate D2E/DX2                !
 ! R5    R(2,7)                  1.0851         estimate D2E/DX2                !
 ! R6    R(3,4)                  1.3968         estimate D2E/DX2                !
 ! R7    R(3,8)                  1.0869         estimate D2E/DX2                !
 ! R8    R(4,5)                  1.3989         estimate D2E/DX2                !
 ! R9    R(4,9)                  1.0875         estimate D2E/DX2                !
 ! R10   R(5,6)                  1.415          estimate D2E/DX2                !
 ! R11   R(5,19)                 1.5119         estimate D2E/DX2                !
 ! R12   R(6,10)                 1.5061         estimate D2E/DX2                !
 ! R13   R(10,11)                1.4147         estimate D2E/DX2                !
 ! R14   R(10,12)                1.415          estimate D2E/DX2                !
 ! R15   R(11,13)                1.4053         estimate D2E/DX2                !
 ! R16   R(11,27)                1.4919         estimate D2E/DX2                !
 ! R17   R(12,14)                1.3989         estimate D2E/DX2                !
 ! R18   R(12,23)                1.5119         estimate D2E/DX2                !
 ! R19   R(13,15)                1.3869         estimate D2E/DX2                !
 ! R20   R(13,16)                1.0851         estimate D2E/DX2                !
 ! R21   R(14,15)                1.3968         estimate D2E/DX2                !
 ! R22   R(14,17)                1.0875         estimate D2E/DX2                !
 ! R23   R(15,18)                1.0869         estimate D2E/DX2                !
 ! R24   R(19,20)                1.0962         estimate D2E/DX2                !
 ! R25   R(19,21)                1.0969         estimate D2E/DX2                !
 ! R26   R(19,22)                1.0945         estimate D2E/DX2                !
 ! R27   R(23,24)                1.0962         estimate D2E/DX2                !
 ! R28   R(23,25)                1.0969         estimate D2E/DX2                !
 ! R29   R(23,26)                1.0945         estimate D2E/DX2                !
 ! R30   R(27,28)                1.5013         estimate D2E/DX2                !
 ! R31   R(27,46)                1.47           estimate D2E/DX2                !
 ! R32   R(28,29)                1.07           estimate D2E/DX2                !
 ! R33   R(28,30)                1.54           estimate D2E/DX2                !
 ! R34   R(28,42)                1.07           estimate D2E/DX2                !
 ! R35   R(30,31)                1.07           estimate D2E/DX2                !
 ! R36   R(30,32)                1.07           estimate D2E/DX2                !
 ! R37   R(30,33)                1.07           estimate D2E/DX2                !
 ! R38   R(34,35)                1.4731         estimate D2E/DX2                !
 ! R39   R(34,43)                1.47           estimate D2E/DX2                !
 ! R40   R(35,36)                1.07           estimate D2E/DX2                !
 ! R41   R(35,37)                1.54           estimate D2E/DX2                !
 ! R42   R(35,41)                1.07           estimate D2E/DX2                !
 ! R43   R(37,38)                1.07           estimate D2E/DX2                !
 ! R44   R(37,39)                1.07           estimate D2E/DX2                !
 ! R45   R(37,40)                1.07           estimate D2E/DX2                !
 ! R46   R(43,44)                1.07           estimate D2E/DX2                !
 ! R47   R(43,45)                1.07           estimate D2E/DX2                !
 ! R48   R(43,49)                1.54           estimate D2E/DX2                !
 ! R49   R(46,47)                1.07           estimate D2E/DX2                !
 ! R50   R(46,48)                1.07           estimate D2E/DX2                !
 ! R51   R(46,60)                1.54           estimate D2E/DX2                !
 ! R52   R(49,50)                1.3952         estimate D2E/DX2                !
 ! R53   R(49,51)                1.3948         estimate D2E/DX2                !
 ! R54   R(50,52)                1.3947         estimate D2E/DX2                !
 ! R55   R(50,53)                1.0997         estimate D2E/DX2                !
 ! R56   R(51,54)                1.3951         estimate D2E/DX2                !
 ! R57   R(51,55)                1.0996         estimate D2E/DX2                !
 ! R58   R(52,56)                1.3954         estimate D2E/DX2                !
 ! R59   R(52,57)                1.0997         estimate D2E/DX2                !
 ! R60   R(54,56)                1.3948         estimate D2E/DX2                !
 ! R61   R(54,58)                1.0998         estimate D2E/DX2                !
 ! R62   R(56,59)                1.0997         estimate D2E/DX2                !
 ! R63   R(60,61)                1.3952         estimate D2E/DX2                !
 ! R64   R(60,62)                1.3948         estimate D2E/DX2                !
 ! R65   R(61,63)                1.3947         estimate D2E/DX2                !
 ! R66   R(61,64)                1.0997         estimate D2E/DX2                !
 ! R67   R(62,65)                1.3951         estimate D2E/DX2                !
 ! R68   R(62,66)                1.0996         estimate D2E/DX2                !
 ! R69   R(63,67)                1.3954         estimate D2E/DX2                !
 ! R70   R(63,68)                1.0997         estimate D2E/DX2                !
 ! R71   R(65,67)                1.3948         estimate D2E/DX2                !
 ! R72   R(65,69)                1.0998         estimate D2E/DX2                !
 ! R73   R(67,70)                1.0997         estimate D2E/DX2                !
 ! A1    A(2,1,6)              119.8643         estimate D2E/DX2                !
 ! A2    A(2,1,34)             120.0678         estimate D2E/DX2                !
 ! A3    A(6,1,34)             120.0678         estimate D2E/DX2                !
 ! A4    A(1,2,3)              120.4455         estimate D2E/DX2                !
 ! A5    A(1,2,7)              118.2596         estimate D2E/DX2                !
 ! A6    A(3,2,7)              121.295          estimate D2E/DX2                !
 ! A7    A(2,3,4)              119.7397         estimate D2E/DX2                !
 ! A8    A(2,3,8)              120.2381         estimate D2E/DX2                !
 ! A9    A(4,3,8)              120.0222         estimate D2E/DX2                !
 ! A10   A(3,4,5)              121.3531         estimate D2E/DX2                !
 ! A11   A(3,4,9)              119.6942         estimate D2E/DX2                !
 ! A12   A(5,4,9)              118.9527         estimate D2E/DX2                !
 ! A13   A(4,5,6)              119.0305         estimate D2E/DX2                !
 ! A14   A(4,5,19)             119.711          estimate D2E/DX2                !
 ! A15   A(6,5,19)             121.2578         estimate D2E/DX2                !
 ! A16   A(1,6,5)              119.5668         estimate D2E/DX2                !
 ! A17   A(1,6,10)             121.1352         estimate D2E/DX2                !
 ! A18   A(5,6,10)             119.2837         estimate D2E/DX2                !
 ! A19   A(6,10,11)            121.1346         estimate D2E/DX2                !
 ! A20   A(6,10,12)            119.2844         estimate D2E/DX2                !
 ! A21   A(11,10,12)           119.5667         estimate D2E/DX2                !
 ! A22   A(10,11,13)           119.8645         estimate D2E/DX2                !
 ! A23   A(10,11,27)           141.0            estimate D2E/DX2                !
 ! A24   A(13,11,27)            98.603          estimate D2E/DX2                !
 ! A25   A(10,12,14)           119.0305         estimate D2E/DX2                !
 ! A26   A(10,12,23)           121.2575         estimate D2E/DX2                !
 ! A27   A(14,12,23)           119.7112         estimate D2E/DX2                !
 ! A28   A(11,13,15)           120.4454         estimate D2E/DX2                !
 ! A29   A(11,13,16)           118.2596         estimate D2E/DX2                !
 ! A30   A(15,13,16)           121.295          estimate D2E/DX2                !
 ! A31   A(12,14,15)           121.353          estimate D2E/DX2                !
 ! A32   A(12,14,17)           118.9529         estimate D2E/DX2                !
 ! A33   A(15,14,17)           119.6941         estimate D2E/DX2                !
 ! A34   A(13,15,14)           119.7397         estimate D2E/DX2                !
 ! A35   A(13,15,18)           120.2383         estimate D2E/DX2                !
 ! A36   A(14,15,18)           120.022          estimate D2E/DX2                !
 ! A37   A(5,19,20)            111.9686         estimate D2E/DX2                !
 ! A38   A(5,19,21)            111.788          estimate D2E/DX2                !
 ! A39   A(5,19,22)            110.7363         estimate D2E/DX2                !
 ! A40   A(20,19,21)           106.586          estimate D2E/DX2                !
 ! A41   A(20,19,22)           107.8683         estimate D2E/DX2                !
 ! A42   A(21,19,22)           107.664          estimate D2E/DX2                !
 ! A43   A(12,23,24)           111.9681         estimate D2E/DX2                !
 ! A44   A(12,23,25)           111.7885         estimate D2E/DX2                !
 ! A45   A(12,23,26)           110.7363         estimate D2E/DX2                !
 ! A46   A(24,23,25)           106.5861         estimate D2E/DX2                !
 ! A47   A(24,23,26)           107.8678         estimate D2E/DX2                !
 ! A48   A(25,23,26)           107.6644         estimate D2E/DX2                !
 ! A49   A(11,27,28)           120.8955         estimate D2E/DX2                !
 ! A50   A(11,27,46)           119.5523         estimate D2E/DX2                !
 ! A51   A(28,27,46)           119.5522         estimate D2E/DX2                !
 ! A52   A(27,28,29)           107.1877         estimate D2E/DX2                !
 ! A53   A(27,28,30)           120.0            estimate D2E/DX2                !
 ! A54   A(27,28,42)           107.1877         estimate D2E/DX2                !
 ! A55   A(29,28,30)           107.1877         estimate D2E/DX2                !
 ! A56   A(29,28,42)           107.5431         estimate D2E/DX2                !
 ! A57   A(30,28,42)           107.1877         estimate D2E/DX2                !
 ! A58   A(28,30,31)           109.4712         estimate D2E/DX2                !
 ! A59   A(28,30,32)           109.4712         estimate D2E/DX2                !
 ! A60   A(28,30,33)           109.4712         estimate D2E/DX2                !
 ! A61   A(31,30,32)           109.4713         estimate D2E/DX2                !
 ! A62   A(31,30,33)           109.4712         estimate D2E/DX2                !
 ! A63   A(32,30,33)           109.4712         estimate D2E/DX2                !
 ! A64   A(1,34,35)            109.4712         estimate D2E/DX2                !
 ! A65   A(1,34,43)            125.2644         estimate D2E/DX2                !
 ! A66   A(35,34,43)           125.2644         estimate D2E/DX2                !
 ! A67   A(34,35,36)           107.1877         estimate D2E/DX2                !
 ! A68   A(34,35,37)           120.0            estimate D2E/DX2                !
 ! A69   A(34,35,41)           107.1877         estimate D2E/DX2                !
 ! A70   A(36,35,37)           107.1877         estimate D2E/DX2                !
 ! A71   A(36,35,41)           107.5431         estimate D2E/DX2                !
 ! A72   A(37,35,41)           107.1877         estimate D2E/DX2                !
 ! A73   A(35,37,38)           109.4712         estimate D2E/DX2                !
 ! A74   A(35,37,39)           109.4712         estimate D2E/DX2                !
 ! A75   A(35,37,40)           109.4712         estimate D2E/DX2                !
 ! A76   A(38,37,39)           109.4713         estimate D2E/DX2                !
 ! A77   A(38,37,40)           109.4712         estimate D2E/DX2                !
 ! A78   A(39,37,40)           109.4712         estimate D2E/DX2                !
 ! A79   A(34,43,44)           109.4712         estimate D2E/DX2                !
 ! A80   A(34,43,45)           109.4712         estimate D2E/DX2                !
 ! A81   A(34,43,49)           109.4712         estimate D2E/DX2                !
 ! A82   A(44,43,45)           109.4713         estimate D2E/DX2                !
 ! A83   A(44,43,49)           109.4712         estimate D2E/DX2                !
 ! A84   A(45,43,49)           109.4712         estimate D2E/DX2                !
 ! A85   A(27,46,47)           109.4712         estimate D2E/DX2                !
 ! A86   A(27,46,48)           109.4712         estimate D2E/DX2                !
 ! A87   A(27,46,60)           109.4712         estimate D2E/DX2                !
 ! A88   A(47,46,48)           109.4712         estimate D2E/DX2                !
 ! A89   A(47,46,60)           109.4713         estimate D2E/DX2                !
 ! A90   A(48,46,60)           109.4712         estimate D2E/DX2                !
 ! A91   A(43,49,50)           119.9972         estimate D2E/DX2                !
 ! A92   A(43,49,51)           120.0043         estimate D2E/DX2                !
 ! A93   A(50,49,51)           119.9985         estimate D2E/DX2                !
 ! A94   A(49,50,52)           120.0086         estimate D2E/DX2                !
 ! A95   A(49,50,53)           119.9808         estimate D2E/DX2                !
 ! A96   A(52,50,53)           120.0105         estimate D2E/DX2                !
 ! A97   A(49,51,54)           120.0            estimate D2E/DX2                !
 ! A98   A(49,51,55)           120.008          estimate D2E/DX2                !
 ! A99   A(54,51,55)           119.992          estimate D2E/DX2                !
 ! A100  A(50,52,56)           119.9942         estimate D2E/DX2                !
 ! A101  A(50,52,57)           120.0128         estimate D2E/DX2                !
 ! A102  A(56,52,57)           119.993          estimate D2E/DX2                !
 ! A103  A(51,54,56)           120.0047         estimate D2E/DX2                !
 ! A104  A(51,54,58)           119.984          estimate D2E/DX2                !
 ! A105  A(56,54,58)           120.0113         estimate D2E/DX2                !
 ! A106  A(52,56,54)           119.994          estimate D2E/DX2                !
 ! A107  A(52,56,59)           119.9811         estimate D2E/DX2                !
 ! A108  A(54,56,59)           120.0249         estimate D2E/DX2                !
 ! A109  A(46,60,61)           119.9972         estimate D2E/DX2                !
 ! A110  A(46,60,62)           120.0043         estimate D2E/DX2                !
 ! A111  A(61,60,62)           119.9985         estimate D2E/DX2                !
 ! A112  A(60,61,63)           120.0086         estimate D2E/DX2                !
 ! A113  A(60,61,64)           119.9808         estimate D2E/DX2                !
 ! A114  A(63,61,64)           120.0105         estimate D2E/DX2                !
 ! A115  A(60,62,65)           120.0            estimate D2E/DX2                !
 ! A116  A(60,62,66)           120.008          estimate D2E/DX2                !
 ! A117  A(65,62,66)           119.992          estimate D2E/DX2                !
 ! A118  A(61,63,67)           119.9942         estimate D2E/DX2                !
 ! A119  A(61,63,68)           120.0128         estimate D2E/DX2                !
 ! A120  A(67,63,68)           119.993          estimate D2E/DX2                !
 ! A121  A(62,65,67)           120.0047         estimate D2E/DX2                !
 ! A122  A(62,65,69)           119.984          estimate D2E/DX2                !
 ! A123  A(67,65,69)           120.0113         estimate D2E/DX2                !
 ! A124  A(63,67,65)           119.994          estimate D2E/DX2                !
 ! A125  A(63,67,70)           119.9811         estimate D2E/DX2                !
 ! A126  A(65,67,70)           120.0249         estimate D2E/DX2                !
 ! D1    D(6,1,2,3)             -0.1479         estimate D2E/DX2                !
 ! D2    D(6,1,2,7)            179.843          estimate D2E/DX2                !
 ! D3    D(34,1,2,3)           179.8521         estimate D2E/DX2                !
 ! D4    D(34,1,2,7)            -0.157          estimate D2E/DX2                !
 ! D5    D(2,1,6,5)              0.1401         estimate D2E/DX2                !
 ! D6    D(2,1,6,10)           178.7573         estimate D2E/DX2                !
 ! D7    D(34,1,6,5)          -179.8599         estimate D2E/DX2                !
 ! D8    D(34,1,6,10)           -1.2427         estimate D2E/DX2                !
 ! D9    D(2,1,34,35)          -63.4768         estimate D2E/DX2                !
 ! D10   D(2,1,34,43)          116.5232         estimate D2E/DX2                !
 ! D11   D(6,1,34,35)          116.5232         estimate D2E/DX2                !
 ! D12   D(6,1,34,43)          -63.4768         estimate D2E/DX2                !
 ! D13   D(1,2,3,4)              0.0885         estimate D2E/DX2                !
 ! D14   D(1,2,3,8)           -179.9625         estimate D2E/DX2                !
 ! D15   D(7,2,3,4)           -179.9022         estimate D2E/DX2                !
 ! D16   D(7,2,3,8)              0.0468         estimate D2E/DX2                !
 ! D17   D(2,3,4,5)             -0.022          estimate D2E/DX2                !
 ! D18   D(2,3,4,9)            179.9719         estimate D2E/DX2                !
 ! D19   D(8,3,4,5)           -179.9711         estimate D2E/DX2                !
 ! D20   D(8,3,4,9)              0.0228         estimate D2E/DX2                !
 ! D21   D(3,4,5,6)              0.0153         estimate D2E/DX2                !
 ! D22   D(3,4,5,19)           179.6981         estimate D2E/DX2                !
 ! D23   D(9,4,5,6)           -179.9787         estimate D2E/DX2                !
 ! D24   D(9,4,5,19)            -0.2959         estimate D2E/DX2                !
 ! D25   D(4,5,6,1)             -0.0742         estimate D2E/DX2                !
 ! D26   D(4,5,6,10)          -178.7172         estimate D2E/DX2                !
 ! D27   D(19,5,6,1)          -179.7519         estimate D2E/DX2                !
 ! D28   D(19,5,6,10)            1.6051         estimate D2E/DX2                !
 ! D29   D(4,5,19,20)          124.5129         estimate D2E/DX2                !
 ! D30   D(4,5,19,21)         -115.9669         estimate D2E/DX2                !
 ! D31   D(4,5,19,22)            4.0826         estimate D2E/DX2                !
 ! D32   D(6,5,19,20)          -55.8116         estimate D2E/DX2                !
 ! D33   D(6,5,19,21)           63.7086         estimate D2E/DX2                !
 ! D34   D(6,5,19,22)         -176.2419         estimate D2E/DX2                !
 ! D35   D(1,6,10,11)           94.4079         estimate D2E/DX2                !
 ! D36   D(1,6,10,12)          -86.9721         estimate D2E/DX2                !
 ! D37   D(5,6,10,11)          -86.971          estimate D2E/DX2                !
 ! D38   D(5,6,10,12)           91.649          estimate D2E/DX2                !
 ! D39   D(6,10,11,13)         178.7559         estimate D2E/DX2                !
 ! D40   D(6,10,11,27)         -11.7699         estimate D2E/DX2                !
 ! D41   D(12,10,11,13)          0.1397         estimate D2E/DX2                !
 ! D42   D(12,10,11,27)        169.614          estimate D2E/DX2                !
 ! D43   D(6,10,12,14)        -178.7163         estimate D2E/DX2                !
 ! D44   D(6,10,12,23)           1.6052         estimate D2E/DX2                !
 ! D45   D(11,10,12,14)         -0.0744         estimate D2E/DX2                !
 ! D46   D(11,10,12,23)       -179.7529         estimate D2E/DX2                !
 ! D47   D(10,11,13,15)         -0.1474         estimate D2E/DX2                !
 ! D48   D(10,11,13,16)        179.8436         estimate D2E/DX2                !
 ! D49   D(27,11,13,15)       -173.4705         estimate D2E/DX2                !
 ! D50   D(27,11,13,16)          6.5205         estimate D2E/DX2                !
 ! D51   D(10,11,27,28)         22.1693         estimate D2E/DX2                !
 ! D52   D(10,11,27,46)       -157.8307         estimate D2E/DX2                !
 ! D53   D(13,11,27,28)       -167.0504         estimate D2E/DX2                !
 ! D54   D(13,11,27,46)         12.9496         estimate D2E/DX2                !
 ! D55   D(10,12,14,15)          0.0159         estimate D2E/DX2                !
 ! D56   D(10,12,14,17)       -179.9781         estimate D2E/DX2                !
 ! D57   D(23,12,14,15)        179.6995         estimate D2E/DX2                !
 ! D58   D(23,12,14,17)         -0.2946         estimate D2E/DX2                !
 ! D59   D(10,12,23,24)        -55.8221         estimate D2E/DX2                !
 ! D60   D(10,12,23,25)         63.6982         estimate D2E/DX2                !
 ! D61   D(10,12,23,26)       -176.2515         estimate D2E/DX2                !
 ! D62   D(14,12,23,24)        124.5016         estimate D2E/DX2                !
 ! D63   D(14,12,23,25)       -115.9781         estimate D2E/DX2                !
 ! D64   D(14,12,23,26)          4.0722         estimate D2E/DX2                !
 ! D65   D(11,13,15,14)          0.0884         estimate D2E/DX2                !
 ! D66   D(11,13,15,18)       -179.9627         estimate D2E/DX2                !
 ! D67   D(16,13,15,14)       -179.9024         estimate D2E/DX2                !
 ! D68   D(16,13,15,18)          0.0465         estimate D2E/DX2                !
 ! D69   D(12,14,15,13)         -0.0225         estimate D2E/DX2                !
 ! D70   D(12,14,15,18)       -179.9715         estimate D2E/DX2                !
 ! D71   D(17,14,15,13)        179.9715         estimate D2E/DX2                !
 ! D72   D(17,14,15,18)          0.0225         estimate D2E/DX2                !
 ! D73   D(11,27,28,29)         26.7123         estimate D2E/DX2                !
 ! D74   D(11,27,28,30)        149.1072         estimate D2E/DX2                !
 ! D75   D(11,27,28,42)        -88.4978         estimate D2E/DX2                !
 ! D76   D(46,27,28,29)       -153.2877         estimate D2E/DX2                !
 ! D77   D(46,27,28,30)        -30.8928         estimate D2E/DX2                !
 ! D78   D(46,27,28,42)         91.5022         estimate D2E/DX2                !
 ! D79   D(11,27,46,47)        -77.9861         estimate D2E/DX2                !
 ! D80   D(11,27,46,48)         42.0139         estimate D2E/DX2                !
 ! D81   D(11,27,46,60)        162.0139         estimate D2E/DX2                !
 ! D82   D(28,27,46,47)        102.0139         estimate D2E/DX2                !
 ! D83   D(28,27,46,48)       -137.9861         estimate D2E/DX2                !
 ! D84   D(28,27,46,60)        -17.9861         estimate D2E/DX2                !
 ! D85   D(27,28,30,31)         55.343          estimate D2E/DX2                !
 ! D86   D(27,28,30,32)        175.3431         estimate D2E/DX2                !
 ! D87   D(27,28,30,33)        -64.657          estimate D2E/DX2                !
 ! D88   D(29,28,30,31)        177.738          estimate D2E/DX2                !
 ! D89   D(29,28,30,32)        -62.262          estimate D2E/DX2                !
 ! D90   D(29,28,30,33)         57.738          estimate D2E/DX2                !
 ! D91   D(42,28,30,31)        -67.0519         estimate D2E/DX2                !
 ! D92   D(42,28,30,32)         52.9481         estimate D2E/DX2                !
 ! D93   D(42,28,30,33)        172.9481         estimate D2E/DX2                !
 ! D94   D(1,34,35,36)          34.3122         estimate D2E/DX2                !
 ! D95   D(1,34,35,37)         156.7072         estimate D2E/DX2                !
 ! D96   D(1,34,35,41)         -80.8979         estimate D2E/DX2                !
 ! D97   D(43,34,35,36)       -145.6878         estimate D2E/DX2                !
 ! D98   D(43,34,35,37)        -23.2928         estimate D2E/DX2                !
 ! D99   D(43,34,35,41)         99.1021         estimate D2E/DX2                !
 ! D100  D(1,34,43,44)         -15.1683         estimate D2E/DX2                !
 ! D101  D(1,34,43,45)         104.8317         estimate D2E/DX2                !
 ! D102  D(1,34,43,49)        -135.1683         estimate D2E/DX2                !
 ! D103  D(35,34,43,44)        164.8317         estimate D2E/DX2                !
 ! D104  D(35,34,43,45)        -75.1683         estimate D2E/DX2                !
 ! D105  D(35,34,43,49)         44.8317         estimate D2E/DX2                !
 ! D106  D(34,35,37,38)       -171.0759         estimate D2E/DX2                !
 ! D107  D(34,35,37,39)        -51.0759         estimate D2E/DX2                !
 ! D108  D(34,35,37,40)         68.9241         estimate D2E/DX2                !
 ! D109  D(36,35,37,38)        -48.6809         estimate D2E/DX2                !
 ! D110  D(36,35,37,39)         71.3191         estimate D2E/DX2                !
 ! D111  D(36,35,37,40)       -168.6809         estimate D2E/DX2                !
 ! D112  D(41,35,37,38)         66.5292         estimate D2E/DX2                !
 ! D113  D(41,35,37,39)       -173.4708         estimate D2E/DX2                !
 ! D114  D(41,35,37,40)        -53.4708         estimate D2E/DX2                !
 ! D115  D(34,43,49,50)       -111.0092         estimate D2E/DX2                !
 ! D116  D(34,43,49,51)         68.9855         estimate D2E/DX2                !
 ! D117  D(44,43,49,50)        128.9908         estimate D2E/DX2                !
 ! D118  D(44,43,49,51)        -51.0145         estimate D2E/DX2                !
 ! D119  D(45,43,49,50)          8.9908         estimate D2E/DX2                !
 ! D120  D(45,43,49,51)       -171.0145         estimate D2E/DX2                !
 ! D121  D(27,46,60,61)         93.6408         estimate D2E/DX2                !
 ! D122  D(27,46,60,62)        -86.3645         estimate D2E/DX2                !
 ! D123  D(47,46,60,61)        -26.3592         estimate D2E/DX2                !
 ! D124  D(47,46,60,62)        153.6355         estimate D2E/DX2                !
 ! D125  D(48,46,60,61)       -146.3592         estimate D2E/DX2                !
 ! D126  D(48,46,60,62)         33.6355         estimate D2E/DX2                !
 ! D127  D(43,49,50,52)       -179.9729         estimate D2E/DX2                !
 ! D128  D(43,49,50,53)         -0.052          estimate D2E/DX2                !
 ! D129  D(51,49,50,52)          0.0323         estimate D2E/DX2                !
 ! D130  D(51,49,50,53)        179.9532         estimate D2E/DX2                !
 ! D131  D(43,49,51,54)       -179.9798         estimate D2E/DX2                !
 ! D132  D(43,49,51,55)         -0.0056         estimate D2E/DX2                !
 ! D133  D(50,49,51,54)          0.0149         estimate D2E/DX2                !
 ! D134  D(50,49,51,55)        179.9892         estimate D2E/DX2                !
 ! D135  D(49,50,52,56)         -0.0568         estimate D2E/DX2                !
 ! D136  D(49,50,52,57)        179.9619         estimate D2E/DX2                !
 ! D137  D(53,50,52,56)       -179.9777         estimate D2E/DX2                !
 ! D138  D(53,50,52,57)          0.041          estimate D2E/DX2                !
 ! D139  D(49,51,54,56)         -0.0376         estimate D2E/DX2                !
 ! D140  D(49,51,54,58)        179.975          estimate D2E/DX2                !
 ! D141  D(55,51,54,56)        179.9881         estimate D2E/DX2                !
 ! D142  D(55,51,54,58)          0.0007         estimate D2E/DX2                !
 ! D143  D(50,52,56,54)          0.0341         estimate D2E/DX2                !
 ! D144  D(50,52,56,59)       -179.9964         estimate D2E/DX2                !
 ! D145  D(57,52,56,54)       -179.9846         estimate D2E/DX2                !
 ! D146  D(57,52,56,59)         -0.0151         estimate D2E/DX2                !
 ! D147  D(51,54,56,52)          0.0131         estimate D2E/DX2                !
 ! D148  D(51,54,56,59)       -179.9563         estimate D2E/DX2                !
 ! D149  D(58,54,56,52)       -179.9995         estimate D2E/DX2                !
 ! D150  D(58,54,56,59)          0.031          estimate D2E/DX2                !
 ! D151  D(46,60,61,63)       -179.9729         estimate D2E/DX2                !
 ! D152  D(46,60,61,64)         -0.052          estimate D2E/DX2                !
 ! D153  D(62,60,61,63)          0.0323         estimate D2E/DX2                !
 ! D154  D(62,60,61,64)        179.9532         estimate D2E/DX2                !
 ! D155  D(46,60,62,65)       -179.9798         estimate D2E/DX2                !
 ! D156  D(46,60,62,66)         -0.0056         estimate D2E/DX2                !
 ! D157  D(61,60,62,65)          0.0149         estimate D2E/DX2                !
 ! D158  D(61,60,62,66)        179.9892         estimate D2E/DX2                !
 ! D159  D(60,61,63,67)         -0.0568         estimate D2E/DX2                !
 ! D160  D(60,61,63,68)        179.9619         estimate D2E/DX2                !
 ! D161  D(64,61,63,67)       -179.9777         estimate D2E/DX2                !
 ! D162  D(64,61,63,68)          0.041          estimate D2E/DX2                !
 ! D163  D(60,62,65,67)         -0.0376         estimate D2E/DX2                !
 ! D164  D(60,62,65,69)        179.975          estimate D2E/DX2                !
 ! D165  D(66,62,65,67)        179.9881         estimate D2E/DX2                !
 ! D166  D(66,62,65,69)          0.0007         estimate D2E/DX2                !
 ! D167  D(61,63,67,65)          0.0341         estimate D2E/DX2                !
 ! D168  D(61,63,67,70)       -179.9964         estimate D2E/DX2                !
 ! D169  D(68,63,67,65)       -179.9846         estimate D2E/DX2                !
 ! D170  D(68,63,67,70)         -0.0151         estimate D2E/DX2                !
 ! D171  D(62,65,67,63)          0.0131         estimate D2E/DX2                !
 ! D172  D(62,65,67,70)       -179.9563         estimate D2E/DX2                !
 ! D173  D(69,65,67,63)       -179.9995         estimate D2E/DX2                !
 ! D174  D(69,65,67,70)          0.0311         estimate D2E/DX2                !
 --------------------------------------------------------------------------------
 Trust Radius=3.00D-01 FncErr=1.00D-07 GrdErr=1.00D-06 EigMax=2.50D+02 EigMin=1.00D-04
 Number of steps in this run=    383 maximum allowed number of steps=    420.
 GradGradGradGradGradGradGradGradGradGradGradGradGradGradGradGradGradGrad

 Stoichiometry    C32H36N2
 Framework group  C1[X(C32H36N2)]
 Deg. of freedom   204
 Full point group                 C1      NOp   1
 Largest Abelian subgroup         C1      NOp   1
 Largest concise Abelian subgroup C1      NOp   1
                         Standard orientation:                         
 ---------------------------------------------------------------------
 Center     Atomic      Atomic             Coordinates (Angstroms)
 Number     Number       Type             X           Y           Z
 ---------------------------------------------------------------------
      1          6           0        2.013681   -0.528083   -1.145932
      2          6           0        2.484514   -0.399755   -2.463782
      3          6           0        2.475051   -1.488746   -3.322634
      4          6           0        1.992388   -2.720542   -2.874429
      5          6           0        1.514863   -2.884100   -1.569776
      6          6           0        1.523448   -1.774818   -0.691288
      7          1           0        2.852299    0.569010   -2.785923
      8          1           0        2.840558   -1.385858   -4.340997
      9          1           0        1.984883   -3.573832   -3.548633
     10          6           0        1.037788   -1.951642    0.723396
     11          6           0       -0.331977   -1.813803    1.049144
     12          6           0        1.965848   -2.289857    1.736628
     13          6           0       -0.759565   -2.010267    2.373324
     14          6           0        1.504810   -2.479406    3.043690
     15          6           0        0.152261   -2.341831    3.364411
     16          1           0       -1.815692   -1.895446    2.594586
     17          1           0        2.219214   -2.738955    3.821489
     18          1           0       -0.182218   -2.493600    4.387317
     19          6           0        0.994499   -4.232411   -1.125807
     20          1           0        1.509182   -4.595463   -0.228565
     21          1           0       -0.074010   -4.195835   -0.880637
     22          1           0        1.128781   -4.978697   -1.915126
     23          6           0        3.439013   -2.441484    1.432284
     24          1           0        3.620218   -3.174054    0.637136
     25          1           0        3.884490   -1.497354    1.095653
     26          1           0        3.986781   -2.768721    2.321590
     27          7           0       -1.619381   -1.333800    0.467806
     28          6           0       -1.806940   -1.241400   -1.018863
     29          1           0       -1.154213   -1.962187   -1.465310
     30          6           0       -3.203587   -1.450096   -1.633210
     31          1           0       -3.896784   -0.771313   -1.181955
     32          1           0       -3.160640   -1.268082   -2.686741
     33          1           0       -3.523734   -2.455895   -1.457786
     34          7           0        2.030534    0.630774   -0.241683
     35          6           0        3.422577    1.055002   -0.013053
     36          1           0        3.959698    0.880218   -0.921816
     37          6           0        3.725188    2.500460    0.423614
     38          1           0        4.781224    2.669479    0.390150
     39          1           0        3.233591    3.183122   -0.237601
     40          1           0        3.371004    2.653089    1.421691
     41          1           0        3.832090    0.406904    0.733384
     42          1           0       -1.470650   -0.271377   -1.320301
     43          6           0        0.842122    1.267754    0.343837
     44          1           0       -0.031834    0.942801   -0.181050
     45          1           0        0.761704    0.993095    1.374854
     46          6           0       -2.719157   -0.946055    1.362818
     47          1           0       -3.205546   -1.824846    1.731670
     48          1           0       -2.328594   -0.383020    2.184616
     49          6           0        0.970706    2.798058    0.228791
     50          6           0        1.156966    3.570559    1.375534
     51          6           0        0.901074    3.411815   -1.021810
     52          6           0        1.272883    4.956560    1.271674
     53          1           0        1.211050    3.086453    2.361413
     54          6           0        1.017995    4.798137   -1.125973
     55          1           0        0.754454    2.803098   -1.925743
     56          6           0        1.203738    5.570561    0.020499
     57          1           0        1.419069    5.565577    2.175568
     58          1           0        0.963467    5.281744   -2.112191
     59          1           0        1.295219    6.663383   -0.061149
     60          6           0       -3.733387   -0.085393    0.586802
     61          6           0       -4.840984   -0.684288   -0.014050
     62          6           0       -3.544799    1.292852    0.484707
     63          6           0       -5.759376    0.094872   -0.717391
     64          1           0       -4.988968   -1.770999    0.065970
     65          6           0       -4.463904    2.072526   -0.217977
     66          1           0       -2.671989    1.765062    0.958362
     67          6           0       -5.571007    1.473779   -0.819112
     68          1           0       -6.632086   -0.377198   -1.191547
     69          1           0       -4.315172    3.159243   -0.297959
     70          1           0       -6.295291    2.087922   -1.373673
 ---------------------------------------------------------------------
 Rotational constants (GHZ):           0.1301289           0.1166521           0.0833104
 Standard basis: 6-31G(d) (6D, 7F)
 There are   582 symmetry adapted cartesian basis functions of A   symmetry.
 There are   582 symmetry adapted basis functions of A   symmetry.
   582 basis functions,  1096 primitive gaussians,   582 cartesian basis functions
   121 alpha electrons      121 beta electrons
       nuclear repulsion energy      3594.5682182916 Hartrees.
 NAtoms=   70 NActive=   70 NUniq=   70 SFac= 1.00D+00 NAtFMM=   60 NAOKFM=T Big=T
 Integral buffers will be    131072 words long.
 Raffenetti 2 integral format.
 Two-electron integral symmetry is turned on.
 ------------------------------------------------------------------------------
 Polarizable Continuum Model (PCM)
 =================================
 Model                : PCM.
 Atomic radii         : SMD-Coulomb.
 Polarization charges : Total charges.
 Charge compensation  : None.
 Solution method      : On-the-fly selection.
 Cavity type          : VdW (van der Waals Surface) (Alpha=1.000).
 Cavity algorithm     : GePol (No added spheres)
                        Default sphere list used, NSphG=   70.
                        Lebedev-Laikov grids with approx.  5.0 points / Ang**2.
                        Smoothing algorithm: York/Karplus (Gamma=1.0000).
                        Polarization charges: spherical gaussians, with
                                              point-specific exponents (IZeta= 3).
                        Self-potential: point-specific (ISelfS= 7).
                        Self-field    : sphere-specific E.n sum rule (ISelfD= 2).
 1st derivatives      : Analytical E(r).r(x)/FMM algorithm (CHGder, D1EAlg=3).
                        Cavity 1st derivative terms included.
 Solvent              : Toluene, Eps=   2.374100 Eps(inf)=   2.238315
 ------------------------------------------------------------------------------
 ------------------------------------------------------------------------------
 Atomic radii for non-electrostatic terms: SMD-CDS.
 ------------------------------------------------------------------------------
 Nuclear repulsion after PCM non-electrostatic terms =     3594.5490875707 Hartrees.
 One-electron integrals computed using PRISM.
 NBasis=   582 RedAO= T EigKep=  2.93D-04  NBF=   582
 NBsUse=   582 1.00D-06 EigRej= -1.00D+00 NBFU=   582
 ExpMin= 1.61D-01 ExpMax= 4.17D+03 ExpMxC= 6.27D+02 IAcc=3 IRadAn=         5 AccDes= 0.00D+00
 Harris functional with IExCor=  402 and IRadAn=       5 diagonalized for initial guess.
 HarFok:  IExCor=  402 AccDes= 0.00D+00 IRadAn=         5 IDoV= 1 UseB2=F ITyADJ=14
 ICtDFT=  3500011 ScaDFX=  1.000000  1.000000  1.000000  1.000000
 FoFCou: FMM=F IPFlag=           0 FMFlag=      100000 FMFlg1=        2001
         NFxFlg=           0 DoJE=T BraDBF=F KetDBF=T FulRan=T
         wScrn=  0.000000 ICntrl=       500 IOpCl=  0 I1Cent=   200000004 NGrid=           0
         NMat0=    1 NMatS0=      1 NMatT0=    0 NMatD0=    1 NMtDS0=    0 NMtDT0=    0
 Petite list used in FoFCou.
 Requested convergence on RMS density matrix=1.00D-08 within 128 cycles.
 Requested convergence on MAX density matrix=1.00D-06.
 Requested convergence on             energy=1.00D-06.
 No special actions if energy rises.
 Inv3:  Mode=1 IEnd=    69494907.
 Iteration    1 A*A^-1 deviation from unit magnitude is 7.55D-15 for   4800.
 Iteration    1 A*A^-1 deviation from orthogonality  is 3.43D-15 for   4806   2934.
 Iteration    1 A^-1*A deviation from unit magnitude is 7.33D-15 for   4800.
 Iteration    1 A^-1*A deviation from orthogonality  is 3.20D-15 for   4794   3493.
 Error on total polarization charges =  0.04482
 SCF Done:  E(RB3LYP) =  -1350.44019599     A.U. after   13 cycles
            NFock= 13  Conv=0.61D-08     -V/T= 2.0094
 SMD-CDS (non-electrostatic) energy       (kcal/mol) =     -12.00
 (included in total energy above)

 **********************************************************************

            Population analysis using the SCF Density.

 **********************************************************************

 Orbital symmetries:
       Occupied  (A) (A) (A) (A) (A) (A) (A) (A) (A) (A) (A) (A)
                 (A) (A) (A) (A) (A) (A) (A) (A) (A) (A) (A) (A)
                 (A) (A) (A) (A) (A) (A) (A) (A) (A) (A) (A) (A)
                 (A) (A) (A) (A) (A) (A) (A) (A) (A) (A) (A) (A)
                 (A) (A) (A) (A) (A) (A) (A) (A) (A) (A) (A) (A)
                 (A) (A) (A) (A) (A) (A) (A) (A) (A) (A) (A) (A)
                 (A) (A) (A) (A) (A) (A) (A) (A) (A) (A) (A) (A)
                 (A) (A) (A) (A) (A) (A) (A) (A) (A) (A) (A) (A)
                 (A) (A) (A) (A) (A) (A) (A) (A) (A) (A) (A) (A)
                 (A) (A) (A) (A) (A) (A) (A) (A) (A) (A) (A) (A)
                 (A)
       Virtual   (A) (A) (A) (A) (A) (A) (A) (A) (A) (A) (A) (A)
                 (A) (A) (A) (A) (A) (A) (A) (A) (A) (A) (A) (A)
                 (A) (A) (A) (A) (A) (A) (A) (A) (A) (A) (A) (A)
                 (A) (A) (A) (A) (A) (A) (A) (A) (A) (A) (A) (A)
                 (A) (A) (A) (A) (A) (A) (A) (A) (A) (A) (A) (A)
                 (A) (A) (A) (A) (A) (A) (A) (A) (A) (A) (A) (A)
                 (A) (A) (A) (A) (A) (A) (A) (A) (A) (A) (A) (A)
                 (A) (A) (A) (A) (A) (A) (A) (A) (A) (A) (A) (A)
                 (A) (A) (A) (A) (A) (A) (A) (A) (A) (A) (A) (A)
                 (A) (A) (A) (A) (A) (A) (A) (A) (A) (A) (A) (A)
                 (A) (A) (A) (A) (A) (A) (A) (A) (A) (A) (A) (A)
                 (A) (A) (A) (A) (A) (A) (A) (A) (A) (A) (A) (A)
                 (A) (A) (A) (A) (A) (A) (A) (A) (A) (A) (A) (A)
                 (A) (A) (A) (A) (A) (A) (A) (A) (A) (A) (A) (A)
                 (A) (A) (A) (A) (A) (A) (A) (A) (A) (A) (A) (A)
                 (A) (A) (A) (A) (A) (A) (A) (A) (A) (A) (A) (A)
                 (A) (A) (A) (A) (A) (A) (A) (A) (A) (A) (A) (A)
                 (A) (A) (A) (A) (A) (A) (A) (A) (A) (A) (A) (A)
                 (A) (A) (A) (A) (A) (A) (A) (A) (A) (A) (A) (A)
                 (A) (A) (A) (A) (A) (A) (A) (A) (A) (A) (A) (A)
                 (A) (A) (A) (A) (A) (A) (A) (A) (A) (A) (A) (A)
                 (A) (A) (A) (A) (A) (A) (A) (A) (A) (A) (A) (A)
                 (A) (A) (A) (A) (A) (A) (A) (A) (A) (A) (A) (A)
                 (A) (A) (A) (A) (A) (A) (A) (A) (A) (A) (A) (A)
                 (A) (A) (A) (A) (A) (A) (A) (A) (A) (A) (A) (A)
                 (A) (A) (A) (A) (A) (A) (A) (A) (A) (A) (A) (A)
                 (A) (A) (A) (A) (A) (A) (A) (A) (A) (A) (A) (A)
                 (A) (A) (A) (A) (A) (A) (A) (A) (A) (A) (A) (A)
                 (A) (A) (A) (A) (A) (A) (A) (A) (A) (A) (A) (A)
                 (A) (A) (A) (A) (A) (A) (A) (A) (A) (A) (A) (A)
                 (A) (A) (A) (A) (A) (A) (A) (A) (A) (A) (A) (A)
                 (A) (A) (A) (A) (A) (A) (A) (A) (A) (A) (A) (A)
                 (A) (A) (A) (A) (A) (A) (A) (A) (A) (A) (A) (A)
                 (A) (A) (A) (A) (A) (A) (A) (A) (A) (A) (A) (A)
                 (A) (A) (A) (A) (A) (A) (A) (A) (A) (A) (A) (A)
                 (A) (A) (A) (A) (A) (A) (A) (A) (A) (A) (A) (A)
                 (A) (A) (A) (A) (A) (A) (A) (A) (A) (A) (A) (A)
                 (A) (A) (A) (A) (A) (A) (A) (A) (A) (A) (A) (A)
                 (A) (A) (A) (A) (A)
 The electronic state is 1-A.
 Alpha  occ. eigenvalues --  -14.33463 -14.31218 -10.21937 -10.21341 -10.21251
 Alpha  occ. eigenvalues --  -10.20240 -10.19416 -10.19286 -10.19026 -10.19015
 Alpha  occ. eigenvalues --  -10.18972 -10.18834 -10.18784 -10.18769 -10.18707
 Alpha  occ. eigenvalues --  -10.18659 -10.18516 -10.18467 -10.18433 -10.18415
 Alpha  occ. eigenvalues --  -10.18366 -10.18259 -10.18062 -10.18032 -10.17972
 Alpha  occ. eigenvalues --  -10.17542 -10.17443 -10.17157 -10.17094 -10.16908
 Alpha  occ. eigenvalues --  -10.16531 -10.15773 -10.14978 -10.14034  -0.91741
 Alpha  occ. eigenvalues --   -0.90420  -0.86081  -0.85021  -0.84043  -0.82778
 Alpha  occ. eigenvalues --   -0.77155  -0.76684  -0.76164  -0.75769  -0.75062
 Alpha  occ. eigenvalues --   -0.74677  -0.73690  -0.73323  -0.72420  -0.70586
 Alpha  occ. eigenvalues --   -0.67814  -0.67258  -0.66401  -0.65832  -0.62056
 Alpha  occ. eigenvalues --   -0.60456  -0.59915  -0.59625  -0.59284  -0.58083
 Alpha  occ. eigenvalues --   -0.57381  -0.55875  -0.55294  -0.55037  -0.51872
 Alpha  occ. eigenvalues --   -0.50274  -0.50199  -0.48888  -0.47544  -0.47019
 Alpha  occ. eigenvalues --   -0.46791  -0.46040  -0.45809  -0.45373  -0.45023
 Alpha  occ. eigenvalues --   -0.44397  -0.43641  -0.43532  -0.42596  -0.42319
 Alpha  occ. eigenvalues --   -0.41936  -0.41763  -0.41584  -0.41147  -0.41093
 Alpha  occ. eigenvalues --   -0.40882  -0.40158  -0.39967  -0.39690  -0.39457
 Alpha  occ. eigenvalues --   -0.38912  -0.37803  -0.37564  -0.37481  -0.37120
 Alpha  occ. eigenvalues --   -0.36490  -0.36232  -0.35265  -0.34821  -0.34569
 Alpha  occ. eigenvalues --   -0.34258  -0.34084  -0.33514  -0.33454  -0.33340
 Alpha  occ. eigenvalues --   -0.33132  -0.32633  -0.32335  -0.31965  -0.31725
 Alpha  occ. eigenvalues --   -0.30286  -0.25958  -0.24936  -0.24465  -0.24131
 Alpha  occ. eigenvalues --   -0.23673  -0.23137  -0.22735  -0.21448  -0.17699
 Alpha  occ. eigenvalues --   -0.17497
 Alpha virt. eigenvalues --   -0.00886  -0.00143  -0.00063   0.00440   0.00637
 Alpha virt. eigenvalues --    0.01053   0.01300   0.02572   0.07900   0.09298
 Alpha virt. eigenvalues --    0.10107   0.10572   0.11282   0.11529   0.11804
 Alpha virt. eigenvalues --    0.12415   0.12632   0.13326   0.13931   0.14131
 Alpha virt. eigenvalues --    0.14468   0.14906   0.15240   0.15640   0.16093
 Alpha virt. eigenvalues --    0.16245   0.16701   0.16877   0.17395   0.17646
 Alpha virt. eigenvalues --    0.17813   0.18147   0.18279   0.18424   0.18948
 Alpha virt. eigenvalues --    0.19100   0.19548   0.20255   0.20266   0.20576
 Alpha virt. eigenvalues --    0.20986   0.21108   0.21643   0.21959   0.22158
 Alpha virt. eigenvalues --    0.22434   0.23106   0.23226   0.23831   0.24425
 Alpha virt. eigenvalues --    0.25175   0.25601   0.25944   0.27230   0.27776
 Alpha virt. eigenvalues --    0.28204   0.28591   0.29029   0.29645   0.30267
 Alpha virt. eigenvalues --    0.30795   0.31307   0.31967   0.32614   0.33118
 Alpha virt. eigenvalues --    0.33390   0.33977   0.34368   0.34873   0.35527
 Alpha virt. eigenvalues --    0.36167   0.36375   0.38340   0.38709   0.40131
 Alpha virt. eigenvalues --    0.40954   0.42647   0.45260   0.46277   0.47404
 Alpha virt. eigenvalues --    0.48553   0.49198   0.49875   0.50210   0.50934
 Alpha virt. eigenvalues --    0.52020   0.52232   0.52659   0.53200   0.53505
 Alpha virt. eigenvalues --    0.54046   0.54426   0.54855   0.55088   0.55573
 Alpha virt. eigenvalues --    0.55877   0.56119   0.56314   0.56768   0.57222
 Alpha virt. eigenvalues --    0.57567   0.57888   0.58006   0.58266   0.58716
 Alpha virt. eigenvalues --    0.59219   0.59386   0.59870   0.60398   0.60489
 Alpha virt. eigenvalues --    0.60612   0.60754   0.61113   0.61377   0.61621
 Alpha virt. eigenvalues --    0.61895   0.62070   0.62295   0.62437   0.62626
 Alpha virt. eigenvalues --    0.63107   0.63319   0.63584   0.63962   0.64878
 Alpha virt. eigenvalues --    0.65097   0.65865   0.66424   0.66619   0.67265
 Alpha virt. eigenvalues --    0.68441   0.68707   0.69945   0.70353   0.70445
 Alpha virt. eigenvalues --    0.71701   0.72647   0.73159   0.73415   0.74192
 Alpha virt. eigenvalues --    0.74463   0.74943   0.75143   0.76215   0.76951
 Alpha virt. eigenvalues --    0.77976   0.78264   0.79101   0.79808   0.81293
 Alpha virt. eigenvalues --    0.81434   0.81898   0.83108   0.83316   0.83423
 Alpha virt. eigenvalues --    0.83748   0.83930   0.84104   0.84358   0.84451
 Alpha virt. eigenvalues --    0.85134   0.85347   0.85742   0.86490   0.87104
 Alpha virt. eigenvalues --    0.87831   0.88337   0.88505   0.88836   0.89614
 Alpha virt. eigenvalues --    0.90299   0.90926   0.91238   0.91365   0.91749
 Alpha virt. eigenvalues --    0.92125   0.92782   0.93158   0.93579   0.93872
 Alpha virt. eigenvalues --    0.94241   0.94552   0.95477   0.95759   0.96179
 Alpha virt. eigenvalues --    0.96447   0.97148   0.97667   0.98705   0.99342
 Alpha virt. eigenvalues --    0.99688   1.00150   1.00654   1.01083   1.01440
 Alpha virt. eigenvalues --    1.01679   1.02005   1.03286   1.03685   1.04427
 Alpha virt. eigenvalues --    1.04955   1.05224   1.05527   1.07205   1.08136
 Alpha virt. eigenvalues --    1.08366   1.09457   1.10306   1.11444   1.12270
 Alpha virt. eigenvalues --    1.12978   1.14193   1.14662   1.14966   1.15406
 Alpha virt. eigenvalues --    1.16309   1.16963   1.17696   1.17954   1.18428
 Alpha virt. eigenvalues --    1.19618   1.19937   1.20255   1.20929   1.22743
 Alpha virt. eigenvalues --    1.23101   1.23560   1.24416   1.25017   1.25315
 Alpha virt. eigenvalues --    1.25879   1.28011   1.29221   1.30085   1.31199
 Alpha virt. eigenvalues --    1.32532   1.35005   1.35341   1.37030   1.37955
 Alpha virt. eigenvalues --    1.38687   1.39757   1.41567   1.42476   1.43056
 Alpha virt. eigenvalues --    1.43480   1.44548   1.44859   1.45047   1.46603
 Alpha virt. eigenvalues --    1.47309   1.48266   1.48367   1.48506   1.48821
 Alpha virt. eigenvalues --    1.49415   1.49857   1.50400   1.50946   1.51060
 Alpha virt. eigenvalues --    1.51527   1.51743   1.52502   1.54331   1.56315
 Alpha virt. eigenvalues --    1.56728   1.58320   1.59028   1.60057   1.61744
 Alpha virt. eigenvalues --    1.62081   1.63222   1.66898   1.68166   1.69823
 Alpha virt. eigenvalues --    1.71114   1.73449   1.74289   1.74882   1.75898
 Alpha virt. eigenvalues --    1.77015   1.78911   1.80785   1.81311   1.81728
 Alpha virt. eigenvalues --    1.81980   1.82745   1.83350   1.84009   1.84376
 Alpha virt. eigenvalues --    1.85764   1.86844   1.87758   1.88539   1.89919
 Alpha virt. eigenvalues --    1.90128   1.90360   1.90646   1.91164   1.91371
 Alpha virt. eigenvalues --    1.91825   1.92409   1.92760   1.93619   1.94682
 Alpha virt. eigenvalues --    1.95098   1.96137   1.96365   1.97038   1.98189
 Alpha virt. eigenvalues --    1.98377   1.99591   1.99759   2.01001   2.01647
 Alpha virt. eigenvalues --    2.02725   2.04479   2.05439   2.06029   2.07046
 Alpha virt. eigenvalues --    2.07594   2.07977   2.08324   2.09316   2.10990
 Alpha virt. eigenvalues --    2.11620   2.12213   2.12781   2.13108   2.13781
 Alpha virt. eigenvalues --    2.15381   2.15582   2.16017   2.16638   2.16802
 Alpha virt. eigenvalues --    2.18486   2.18986   2.20806   2.21496   2.22017
 Alpha virt. eigenvalues --    2.22244   2.22554   2.23335   2.23899   2.24806
 Alpha virt. eigenvalues --    2.25246   2.26246   2.26444   2.27784   2.29234
 Alpha virt. eigenvalues --    2.29615   2.30018   2.30404   2.31234   2.31522
 Alpha virt. eigenvalues --    2.31940   2.32424   2.33180   2.33620   2.34617
 Alpha virt. eigenvalues --    2.35006   2.35587   2.36411   2.37470   2.37911
 Alpha virt. eigenvalues --    2.39223   2.40045   2.42059   2.42547   2.43322
 Alpha virt. eigenvalues --    2.43684   2.44504   2.45809   2.46909   2.47585
 Alpha virt. eigenvalues --    2.48108   2.50598   2.51639   2.52983   2.54787
 Alpha virt. eigenvalues --    2.57286   2.58270   2.59296   2.59552   2.61456
 Alpha virt. eigenvalues --    2.62496   2.64408   2.64777   2.65214   2.66431
 Alpha virt. eigenvalues --    2.66637   2.67005   2.69297   2.69973   2.71093
 Alpha virt. eigenvalues --    2.71728   2.72661   2.73599   2.73953   2.74093
 Alpha virt. eigenvalues --    2.75559   2.76361   2.76452   2.77089   2.78018
 Alpha virt. eigenvalues --    2.78609   2.80486   2.81225   2.81806   2.83144
 Alpha virt. eigenvalues --    2.86216   2.88505   2.90686   2.91166   2.93091
 Alpha virt. eigenvalues --    2.96627   2.99106   3.01022   3.05311   3.06716
 Alpha virt. eigenvalues --    3.11981   3.16211   3.23752   3.41255   3.41762
 Alpha virt. eigenvalues --    3.41902   3.46691   4.03912   4.08893   4.11432
 Alpha virt. eigenvalues --    4.11776   4.11989   4.12231   4.15172   4.15448
 Alpha virt. eigenvalues --    4.16981   4.17875   4.20757   4.24833   4.27101
 Alpha virt. eigenvalues --    4.29103   4.30356   4.31635   4.32841   4.34682
 Alpha virt. eigenvalues --    4.36615   4.38114   4.40075   4.41233   4.43920
 Alpha virt. eigenvalues --    4.45403   4.48030   4.48918   4.51694   4.53070
 Alpha virt. eigenvalues --    4.59318   4.60725   4.73044   4.75383   4.81138
 Alpha virt. eigenvalues --    4.86001
          Condensed to atoms (all electrons):
 Mulliken charges:
               1
     1  C    0.248500
     2  C   -0.174473
     3  C   -0.145449
     4  C   -0.211659
     5  C    0.146551
     6  C   -0.043975
     7  H    0.141308
     8  H    0.137671
     9  H    0.128161
    10  C   -0.051582
    11  C    0.342885
    12  C    0.167630
    13  C   -0.202957
    14  C   -0.226241
    15  C   -0.174844
    16  H    0.163447
    17  H    0.120121
    18  H    0.127051
    19  C   -0.543330
    20  H    0.170862
    21  H    0.170001
    22  H    0.154991
    23  C   -0.554413
    24  H    0.166602
    25  H    0.182517
    26  H    0.156089
    27  N   -0.559574
    28  C   -0.127324
    29  H    0.161831
    30  C   -0.469866
    31  H    0.226717
    32  H    0.140776
    33  H    0.136524
    34  N   -0.516383
    35  C   -0.124220
    36  H    0.147250
    37  C   -0.474334
    38  H    0.142674
    39  H    0.170864
    40  H    0.156803
    41  H    0.141056
    42  H    0.145392
    43  C   -0.197449
    44  H    0.183530
    45  H    0.146255
    46  C   -0.221599
    47  H    0.174953
    48  H    0.187653
    49  C    0.123724
    50  C   -0.191261
    51  C   -0.177303
    52  C   -0.139246
    53  H    0.140588
    54  C   -0.144861
    55  H    0.142605
    56  C   -0.143821
    57  H    0.138936
    58  H    0.139735
    59  H    0.138904
    60  C    0.086525
    61  C   -0.268986
    62  C   -0.157525
    63  C   -0.120835
    64  H    0.168124
    65  C   -0.157166
    66  H    0.152659
    67  C   -0.130490
    68  H    0.143030
    69  H    0.145383
    70  H    0.144292
 Sum of Mulliken charges =  -0.00000
 Mulliken charges with hydrogens summed into heavy atoms:
               1
     1  C    0.248500
     2  C   -0.033165
     3  C   -0.007779
     4  C   -0.083498
     5  C    0.146551
     6  C   -0.043975
    10  C   -0.051582
    11  C    0.342885
    12  C    0.167630
    13  C   -0.039511
    14  C   -0.106120
    15  C   -0.047794
    19  C   -0.047476
    23  C   -0.049205
    27  N   -0.559574
    28  C    0.179899
    30  C    0.034152
    34  N   -0.516383
    35  C    0.164086
    37  C   -0.003993
    43  C    0.132335
    46  C    0.141007
    49  C    0.123724
    50  C   -0.050673
    51  C   -0.034699
    52  C   -0.000310
    54  C   -0.005126
    56  C   -0.004917
    60  C    0.086525
    61  C   -0.100862
    62  C   -0.004866
    63  C    0.022195
    65  C   -0.011782
    67  C    0.013802
 Electronic spatial extent (au):  <R**2>=          14584.1961
 Charge=             -0.0000 electrons
 Dipole moment (field-independent basis, Debye):
    X=             -1.5058    Y=              0.7369    Z=             -0.6477  Tot=              1.7972
 Quadrupole moment (field-independent basis, Debye-Ang):
   XX=           -192.4666   YY=           -193.6206   ZZ=           -194.3091
   XY=              3.1211   XZ=              2.2746   YZ=              0.8816
 Traceless Quadrupole moment (field-independent basis, Debye-Ang):
   XX=              0.9988   YY=             -0.1552   ZZ=             -0.8437
   XY=              3.1211   XZ=              2.2746   YZ=              0.8816
 Octapole moment (field-independent basis, Debye-Ang**2):
  XXX=            -49.0681  YYY=             49.2066  ZZZ=             -1.6513  XYY=             -3.9724
  XXY=            -17.0679  XXZ=            -25.8425  XZZ=             16.3953  YZZ=              5.9529
  YYZ=            -17.4986  XYZ=              8.7857
 Hexadecapole moment (field-independent basis, Debye-Ang**3):
 XXXX=          -8832.5051 YYYY=          -7518.8281 ZZZZ=          -3039.3531 XXXY=             38.8351
 XXXZ=            255.3798 YYYX=             33.9269 YYYZ=             75.9216 ZZZX=            -62.4963
 ZZZY=             -1.1869 XXYY=          -2791.1639 XXZZ=          -2010.5777 YYZZ=          -1752.1920
 XXYZ=            -75.3846 YYXZ=             23.1972 ZZXY=              5.1108
 N-N= 3.594549087571D+03 E-N=-1.031741332243D+04  KE= 1.337926207104D+03
 D1PCM: PCM CHGder 1st derivatives, ID1Alg=3 FixD1E=F DoIter=F DoCFld=F I1PDM=0.
 Calling FoFJK, ICntrl=      2127 FMM=T ISym2X=0 I1Cent= 0 IOpClX= 0 NMat=1 NMatS=1 NMatT=0.
 ***** Axes restored to original set *****
 -------------------------------------------------------------------
 Center     Atomic                   Forces (Hartrees/Bohr)
 Number     Number              X              Y              Z
 -------------------------------------------------------------------
      1        6           0.004602272   -0.028634326   -0.016561913
      2        6          -0.001382317   -0.004615837   -0.001172746
      3        6           0.000359421    0.000112134    0.002492951
      4        6           0.001088828    0.001395701    0.000880075
      5        6          -0.000585827    0.002199344   -0.002051553
      6        6           0.000862342    0.000230796   -0.001799626
      7        1           0.000347543    0.002025503   -0.001111364
      8        1           0.000066812    0.000173474   -0.000384494
      9        1          -0.000112606    0.000306338   -0.000094670
     10        6           0.006499593    0.020389641   -0.016699582
     11        6           0.048991691   -0.049171275   -0.047034752
     12        6           0.006877743   -0.007004080   -0.001266061
     13        6          -0.021241600   -0.021891595    0.045857273
     14        6          -0.003866997   -0.001410022    0.003406820
     15        6           0.000611069    0.000640033   -0.000433215
     16        1          -0.014043256   -0.005429771    0.032827749
     17        1          -0.000319925    0.000028367    0.000097807
     18        1           0.000074569   -0.000804386    0.000986066
     19        6          -0.000367708    0.000279152    0.000327673
     20        1           0.000105539   -0.000141529   -0.000129743
     21        1           0.000018425   -0.000268756    0.000111408
     22        1           0.000103277    0.000270255    0.000147654
     23        6           0.000729343    0.001234358   -0.000545988
     24        1           0.000017901    0.000244665    0.000154920
     25        1           0.001532470   -0.000163782    0.001863024
     26        1           0.000475652   -0.000449231   -0.000027634
     27        7          -0.021628675    0.057993985    0.016358988
     28        6           0.000921161   -0.015291848    0.000175184
     29        1          -0.005304801    0.008833430    0.012754033
     30        6          -0.026353687    0.014258164    0.024450804
     31        1          -0.006632671    0.046706041    0.007740746
     32        1          -0.002106653    0.020067749   -0.002932121
     33        1           0.016360457    0.000657268    0.010149690
     34        7           0.004146430    0.040132179    0.009398747
     35        6          -0.000884962   -0.015212973   -0.016867100
     36        1          -0.004041409    0.014816056    0.004562769
     37        6           0.020798041    0.009305837    0.011815474
     38        1          -0.015740452    0.004245211    0.009381050
     39        1          -0.007262906    0.004039188   -0.011440117
     40        1          -0.004706722   -0.013864297   -0.002254722
     41        1          -0.007056098   -0.008136607    0.019641885
     42        1          -0.014199333    0.008705891   -0.013434197
     43        6          -0.038373716    0.016459993    0.002384031
     44        1           0.013902321    0.005643449   -0.000678929
     45        1           0.005661627   -0.020447485    0.003796594
     46        6           0.002733065    0.045719736   -0.039509019
     47        1           0.019697414   -0.010210795    0.003748616
     48        1          -0.007752542   -0.011731732   -0.010546393
     49        6           0.022536302   -0.006656362    0.005159349
     50        6           0.005776939   -0.008259206   -0.005197740
     51        6           0.004373092    0.006078554   -0.005298501
     52        6          -0.004414354   -0.008591771   -0.002394895
     53        1          -0.000127278    0.006474265   -0.004752062
     54        6           0.000533316    0.009180201   -0.004795490
     55        1          -0.003953477   -0.007097548   -0.000613641
     56        6          -0.007684618   -0.002239617   -0.007874703
     57        1           0.003854206    0.006935874    0.001462031
     58        1           0.000969077   -0.006427897    0.004867927
     59        1           0.004820216    0.000618382    0.006609855
     60        6          -0.012024820   -0.041590023    0.007638640
     61        6           0.025912463   -0.047399479   -0.017180062
     62        6          -0.003435470   -0.002381706    0.004116848
     63        6           0.016442637   -0.009869271   -0.007141363
     64        1          -0.005123764   -0.004768459   -0.008676508
     65        6          -0.006192955    0.002190380   -0.011736719
     66        1           0.007738914    0.002450917   -0.000589529
     67        6           0.001538255    0.003143424   -0.008236285
     68        1          -0.008014217   -0.002192363    0.001788281
     69        1           0.005330020    0.000334819    0.006588306
     70        1          -0.002474624   -0.002166729    0.007720168
 -------------------------------------------------------------------
 Cartesian Forces:  Max     0.057993985 RMS     0.014158306

 GradGradGradGradGradGradGradGradGradGradGradGradGradGradGradGradGradGrad
 Berny optimization.
 FormGI is forming the generalized inverse of G from B-inverse, IUseBI=4.
 Internal  Forces:  Max     0.309886803 RMS     0.034449219
 Search for a local minimum.
 Step number   1 out of a maximum of  383
 All quantities printed in internal units (Hartrees-Bohrs-Radians)
 Mixed Optimization -- RFO/linear search
 Second derivative matrix not updated -- first step.
 ITU=  0
     Eigenvalues ---    0.00237   0.00237   0.00237   0.00237   0.00352
     Eigenvalues ---    0.00476   0.00536   0.00609   0.00609   0.00685
     Eigenvalues ---    0.00725   0.00752   0.00766   0.00766   0.00766
     Eigenvalues ---    0.01388   0.01388   0.01418   0.01427   0.01523
     Eigenvalues ---    0.01534   0.01538   0.01605   0.01919   0.01919
     Eigenvalues ---    0.02037   0.02037   0.02117   0.02117   0.02133
     Eigenvalues ---    0.02133   0.02152   0.02152   0.02153   0.02153
     Eigenvalues ---    0.02154   0.02154   0.02155   0.02155   0.02155
     Eigenvalues ---    0.02155   0.02155   0.02155   0.02156   0.02156
     Eigenvalues ---    0.02157   0.02157   0.02163   0.02163   0.02204
     Eigenvalues ---    0.02204   0.03294   0.03411   0.05221   0.05269
     Eigenvalues ---    0.05269   0.05304   0.05720   0.05720   0.05720
     Eigenvalues ---    0.05720   0.06518   0.06518   0.07006   0.07006
     Eigenvalues ---    0.07087   0.07087   0.09364   0.09364   0.10359
     Eigenvalues ---    0.10452   0.12902   0.12902   0.13497   0.13534
     Eigenvalues ---    0.16000   0.16000   0.16000   0.16000   0.16000
     Eigenvalues ---    0.16000   0.16000   0.16000   0.16000   0.16000
     Eigenvalues ---    0.16000   0.16000   0.16000   0.16000   0.16000
     Eigenvalues ---    0.16000   0.16000   0.16000   0.16000   0.16000
     Eigenvalues ---    0.16000   0.16000   0.16000   0.16000   0.16000
     Eigenvalues ---    0.16000   0.16000   0.16000   0.22000   0.22000
     Eigenvalues ---    0.22000   0.22000   0.22022   0.22022   0.22082
     Eigenvalues ---    0.22084   0.22135   0.22136   0.23392   0.23454
     Eigenvalues ---    0.23486   0.23486   0.24611   0.24886   0.24908
     Eigenvalues ---    0.24992   0.24993   0.25000   0.25000   0.25000
     Eigenvalues ---    0.25000   0.25000   0.25000   0.25000   0.25000
     Eigenvalues ---    0.25000   0.28519   0.28519   0.28519   0.28519
     Eigenvalues ---    0.31161   0.31161   0.31741   0.32241   0.33242
     Eigenvalues ---    0.33709   0.33709   0.33718   0.33718   0.33718
     Eigenvalues ---    0.33718   0.33720   0.33720   0.33726   0.33726
     Eigenvalues ---    0.34029   0.34029   0.34101   0.34101   0.34294
     Eigenvalues ---    0.34294   0.35100   0.35100   0.35179   0.35179
     Eigenvalues ---    0.35372   0.35379   0.35380   0.35740   0.35740
     Eigenvalues ---    0.35740   0.37230   0.37230   0.37230   0.37230
     Eigenvalues ---    0.37230   0.37230   0.37230   0.37230   0.37230
     Eigenvalues ---    0.37230   0.37230   0.37230   0.37230   0.37230
     Eigenvalues ---    0.40645   0.40655   0.41077   0.41092   0.42121
     Eigenvalues ---    0.42121   0.42300   0.42300   0.43763   0.43765
     Eigenvalues ---    0.45268   0.45269   0.45510   0.45510   0.46412
     Eigenvalues ---    0.46412   0.46453   0.46453   0.46466   0.46466
     Eigenvalues ---    0.46497   0.46497   0.47159   0.47159
 RFO step:  Lambda=-5.62525197D-01 EMin= 2.36824184D-03
 Linear search not attempted -- first point.
 Maximum step size (   0.300) exceeded in Quadratic search.
    -- Step size scaled by   0.375
 Iteration  1 RMS(Cart)=  0.16952877 RMS(Int)=  0.00629025
 Iteration  2 RMS(Cart)=  0.04164814 RMS(Int)=  0.00040989
 Iteration  3 RMS(Cart)=  0.00088114 RMS(Int)=  0.00022659
 Iteration  4 RMS(Cart)=  0.00000074 RMS(Int)=  0.00022659
 Variable       Old X    -DE/DX   Delta X   Delta X   Delta X     New X
                                 (Linear)    (Quad)   (Total)
    R1        2.65564  -0.00016   0.00000  -0.00005  -0.00005   2.65558
    R2        2.67340   0.00263   0.00000   0.00101   0.00101   2.67441
    R3        2.77790  -0.02421   0.00000  -0.00987  -0.00987   2.76803
    R4        2.62095   0.00174   0.00000   0.00061   0.00061   2.62156
    R5        2.05063   0.00091   0.00000   0.00037   0.00037   2.05100
    R6        2.63965  -0.00161   0.00000  -0.00061  -0.00061   2.63905
    R7        2.05385   0.00021   0.00000   0.00009   0.00009   2.05394
    R8        2.64352  -0.00066   0.00000  -0.00025  -0.00025   2.64328
    R9        2.05512   0.00012   0.00000   0.00005   0.00005   2.05517
   R10        2.67403   0.00235   0.00000   0.00090   0.00090   2.67493
   R11        2.85707   0.00016   0.00000   0.00007   0.00007   2.85714
   R12        2.84619   0.00118   0.00000   0.00050   0.00050   2.84670
   R13        2.67339   0.00042   0.00000   0.00030   0.00031   2.67370
   R14        2.67403   0.00157   0.00000   0.00051   0.00052   2.67455
   R15        2.65564   0.04636   0.00000   0.01742   0.01742   2.67306
   R16        2.81928   0.00665   0.00000   0.00279   0.00279   2.82207
   R17        2.64352  -0.01074   0.00000  -0.00416  -0.00416   2.63936
   R18        2.85707  -0.00093   0.00000  -0.00040  -0.00040   2.85667
   R19        2.62095   0.00217   0.00000   0.00085   0.00085   2.62179
   R20        2.05063  -0.02497   0.00000  -0.01021  -0.01021   2.04042
   R21        2.63966  -0.00959   0.00000  -0.00365  -0.00366   2.63600
   R22        2.05512   0.00022   0.00000   0.00009   0.00009   2.05521
   R23        2.05385   0.00099   0.00000   0.00040   0.00040   2.05425
   R24        2.07160  -0.00004   0.00000  -0.00002  -0.00002   2.07158
   R25        2.07281   0.00008   0.00000   0.00003   0.00003   2.07285
   R26        2.06836   0.00033   0.00000   0.00013   0.00013   2.06850
   R27        2.07160   0.00028   0.00000   0.00012   0.00012   2.07172
   R28        2.07281  -0.00232   0.00000  -0.00096  -0.00096   2.07185
   R29        2.06837   0.00009   0.00000   0.00004   0.00004   2.06840
   R30        2.83705   0.05555   0.00000   0.02353   0.02353   2.86058
   R31        2.77790   0.10818   0.00000   0.04408   0.04408   2.82197
   R32        2.02201   0.01591   0.00000   0.00638   0.00638   2.02838
   R33        2.91018  -0.01748   0.00000  -0.00773  -0.00773   2.90245
   R34        2.02201   0.02086   0.00000   0.00837   0.00837   2.03037
   R35        2.02201  -0.03739   0.00000  -0.01499  -0.01499   2.00701
   R36        2.02201   0.01973   0.00000   0.00791   0.00791   2.02992
   R37        2.02201   0.01882   0.00000   0.00755   0.00755   2.02955
   R38        2.78376   0.02209   0.00000   0.00904   0.00904   2.79279
   R39        2.77790   0.01330   0.00000   0.00542   0.00542   2.78332
   R40        2.02201   0.01590   0.00000   0.00637   0.00637   2.02838
   R41        2.91018  -0.00117   0.00000  -0.00052  -0.00052   2.90966
   R42        2.02201   0.02158   0.00000   0.00865   0.00865   2.03066
   R43        2.02201   0.01855   0.00000   0.00744   0.00744   2.02944
   R44        2.02201   0.01123   0.00000   0.00450   0.00450   2.02651
   R45        2.02201   0.01340   0.00000   0.00537   0.00537   2.02738
   R46        2.02201   0.01459   0.00000   0.00585   0.00585   2.02786
   R47        2.02201   0.02056   0.00000   0.00825   0.00825   2.03025
   R48        2.91018  -0.00480   0.00000  -0.00212  -0.00212   2.90806
   R49        2.02201   0.02052   0.00000   0.00823   0.00823   2.03024
   R50        2.02201   0.01449   0.00000   0.00581   0.00581   2.02782
   R51        2.91018   0.00487   0.00000   0.00216   0.00216   2.91233
   R52        2.63647   0.00285   0.00000   0.00105   0.00105   2.63752
   R53        2.63584   0.00423   0.00000   0.00155   0.00155   2.63740
   R54        2.63562   0.00204   0.00000   0.00074   0.00074   2.63637
   R55        2.07805  -0.00800   0.00000  -0.00333  -0.00333   2.07471
   R56        2.63643   0.00084   0.00000   0.00031   0.00031   2.63674
   R57        2.07795  -0.00810   0.00000  -0.00337  -0.00337   2.07458
   R58        2.63697   0.00036   0.00000   0.00012   0.00012   2.63710
   R59        2.07809  -0.00807   0.00000  -0.00336  -0.00336   2.07473
   R60        2.63584   0.00254   0.00000   0.00092   0.00092   2.63676
   R61        2.07825  -0.00812   0.00000  -0.00338  -0.00338   2.07487
   R62        2.07809  -0.00820   0.00000  -0.00342  -0.00342   2.07468
   R63        2.63647   0.01300   0.00000   0.00480   0.00480   2.64127
   R64        2.63584   0.00028   0.00000   0.00012   0.00013   2.63597
[...]
 000213,-0.00000141,0.00000138,-0.00000180,-0.00000123,0.00000802,0.000
 00162,0.00001129,-0.00000991,0.00001477,-0.00000888,0.00000002,-0.0000
 0138,0.00000172,0.00000066,-0.00000290,0.00000087,-0.00000067,-0.00000
 394,-0.00000121,0.00000447,0.00004161,-0.00006488,-0.00012646,-0.00021
 630,0.00004048,0.00000896,-0.00000064,0.00000816,0.00002963,0.00004297
 ,-0.00005205,0.00002078,-0.00000256,-0.00002449,-0.00001095,-0.0000140
 0,0.00002453,0.00000896,-0.00001814,0.00001650,0.00000557,0.00000105,-
 0.00000522,0.00000018,0.00000898,-0.00000810,0.00000069,0.00000446,-0.
 00000073,-0.00000005,0.00000016,-0.00000256,0.00000522,-0.00000061,0.0
 0000374,-0.00000131,-0.00000462,-0.00000036,-0.00000024,0.00000616,0.0
 0000108,0.00000250,-0.00000415,-0.00000274,0.00000400,-0.00000226,-0.0
 0000144,0.00000411,-0.00000004,-0.00000510,0.00021187,0.00021376,-0.00
 050611,0.00012436,0.00005323,0.00004148,-0.00002305,-0.00002257,-0.000
 02676,-0.00001168,-0.00002620,-0.00000995,0.00001610,0.00001131,0.0000
 0357,-0.00001575,-0.00001254,-0.00001627,-0.00000650,0.00000717,-0.000
 00265,0.00002120,-0.00000196,-0.00000216,-0.00001955,-0.00000306,0.000
 00171,0.00000281,-0.00000158,-0.00000178,0.00000213,0.00000048,-0.0000
 0138,0.00000366,-0.00000009,-0.00000020,-0.00000017,-0.00000029,0.0000
 0106,-0.00000133,-0.00000012,0.00000034,0.00000119,0.00000128,-0.00000
 015,-0.00000123,0.00003258,-0.00000635,-0.00001743,0.00000437,0.000003
 46,-0.00001062,0.00000630,0.00000213,0.00000136,-0.00000319,-0.0000001
 3,0.00088824,-0.00092932,0.00020699,-0.00004840,0.00000216,-0.00004444
 ,0.00004733,0.00009264,-0.00012277,-0.00000422,-0.00000601,-0.00000910
 ,0.00000383,-0.00000204,0.00000467,0.00000879,0.00000067,0.00000287,-0
 .00000179,-0.00000403,-0.00000109,-0.00000276,-0.00000120,-0.00000093,
 0.00000181,0.00000081,-0.00000514,-0.00000514,0.00000520,-0.00000214,0
 .00000170,0.00000065,0.00000090,0.00000095,0.00000279,0.00000105,-0.00
 000129,0.00000052,0.00000214,-0.00000014,0.00000037,0.00000231,0.00096
 984,0.00470097,-0.00350510,0.02309173,-0.01308399,-0.01150962,-0.00058
 988,0.00063245,-0.00061243,0.11815581,-0.05105589,-0.13857058,-0.00134
 030,-0.00110618,0.00060388,-0.00022134,0.00357938,0.00048197,-0.000196
 76,-0.00044311,-0.00006361,-0.01053104,0.00511697,0.01055524,-0.129263
 93,0.05355949,0.14243072,0.00002698,0.00003219,0.00001677,0.00000515,-
 0.00001172,-0.00000015,0.00000113,0.00000396,0.00000314,-0.00000795,-0
 .00000723,0.00000045,0.00000157,0.00000555,0.00000444,-0.00001015,0.00
 000310,-0.00000459,-0.00000245,0.00000319,0.00000101,0.00000428,-0.000
 00523,-0.00000139,-0.00000055,-0.00000329,-0.00000543,0.00000497,0.000
 01136,-0.00001573,-0.00005728,-0.00004621,0.00004001,-0.00000301,-0.00
 000379,0.00000383,0.00000288,0.00001404,-0.00001015,0.00000358,0.00000
 024,-0.00000516,-0.00000098,-0.00000224,0.00000500,0.00000371,-0.00000
 376,0.00000232,0.00000196,0.00000050,-0.00000133,0.00000026,0.00000201
 ,-0.00000075,0.00000110,0.00000391,-0.00000034,-0.00000113,-0.00000030
 ,0.,0.00000262,-0.00000017,0.00000070,-0.00000160,-0.00000350,-0.00000
 260,0.00000004,0.00000111,0.00000171,0.00000093,-0.00000230,-0.0000024
 0,0.00000156,0.00000010,-0.00000031,0.00000129,-0.00000013,-0.00000144
 ,0.00002281,-0.00002084,-0.00016870,0.00007913,0.00003554,-0.00001761,
 0.00000184,-0.00000513,-0.00002184,-0.00001898,0.00000001,0.00001693,0
 .00000940,-0.00000944,-0.00000246,-0.00000969,-0.00000421,-0.00000747,
 0.00000479,-0.00000219,-0.00000044,-0.00000526,-0.00002486,-0.00003340
 ,-0.00001062,-0.00000707,0.00000843,0.00000319,-0.00000225,-0.00000411
 ,0.00000385,0.00000258,0.00000066,0.00000341,-0.00000014,-0.00000241,-
 0.00000076,0.00000006,0.00000229,-0.00000478,-0.00000284,-0.00000170,-
 0.00000152,-0.00000045,0.00000138,0.00000497,0.00001989,0.00001823,-0.
 00001630,0.00001720,0.00002650,-0.00000412,-0.00000302,0.00000527,0.00
 000137,-0.00000287,-0.00000618,0.00021692,-0.00004660,0.00032722,-0.00
 006638,-0.00009814,0.00004702,0.00001221,0.00000332,-0.00004620,0.0000
 2061,-0.00001114,0.00002978,0.00000160,0.00001498,0.00000275,0.0000202
 9,-0.00003843,-0.00001980,-0.00000060,0.00001073,-0.00001259,-0.000001
 77,0.00000672,-0.00000160,0.00001254,0.00001253,-0.00002244,-0.0000264
 3,0.00004662,0.00003401,-0.00000168,-0.00001734,-0.00001181,-0.0000004
 0,0.00000576,-0.00000069,-0.00002126,-0.00000113,-0.00001084,0.0000020
 9,0.00000549,0.00000524,0.00328945,0.00225515,0.00267195,-0.00013174,-
 0.00036230,0.00061205,0.00628452,-0.00488520,0.00290240,0.00001467,0.0
 0353244,0.00503549,-0.00044245,-0.00050703,-0.00042134,-0.14746648,0.1
 2811238,-0.05605022,-0.00106959,-0.00199361,-0.00129898,-0.00979165,0.
 01661348,-0.01112930,-0.00052569,0.00101131,-0.00052255,0.15034133,0.0
 0005112,0.00004880,0.00002748,0.00000572,-0.00001668,-0.00000640,0.000
 00551,0.00000865,0.00000466,-0.00001079,-0.00000185,-0.00000338,-0.000
 00463,0.00000115,0.00000144,-0.00000770,-0.00001652,0.00000469,-0.0000
 0744,0.00000544,-0.00000085,0.00000058,0.00000104,-0.00000029,-0.00000
 048,0.00000029,-0.00000234,-0.00000636,-0.00002306,0.00003479,0.000079
 85,0.00008492,-0.00007994,-0.00000232,0.00000202,-0.00000367,-0.000015
 18,-0.00004230,0.00002695,-0.00001552,0.00000064,0.00001404,0.00000446
 ,0.00001272,-0.00001504,-0.00000799,0.00001826,-0.00000712,-0.00000345
 ,0.00000044,0.00000467,0.00000187,-0.00000375,0.00000449,0.00000269,-0
 .00000538,-0.00000159,-0.00000314,0.00000070,0.00000046,-0.00000444,0.
 00000417,-0.00000377,-0.00000038,0.00000007,-0.00000235,0.00000158,-0.
 00000232,0.00000016,-0.00000197,0.00000199,0.00000277,-0.00000544,0.00
 000272,0.00000181,-0.00000219,0.00000074,0.00000296,-0.00002866,-0.000
 01580,0.00007827,-0.00001329,0.00001133,-0.00003489,0.00001035,0.00001
 500,0.00001444,-0.00000826,-0.00000224,0.00001133,-0.00001092,0.000000
 95,-0.00000654,0.00000518,0.00000598,0.00000271,0.00000667,-0.00000682
 ,0.00001029,-0.00004271,-0.00003269,-0.00005799,0.00001138,-0.00000813
 ,0.00001796,-0.00000049,-0.00000274,-0.00000467,0.00000316,0.00000367,
 0.00000493,0.00000142,-0.00000061,-0.00000507,-0.00000065,0.00000329,0
 .00000213,-0.00000772,-0.00000678,-0.00000393,-0.00000395,0.00000116,0
 .00000217,-0.00001223,-0.00003674,0.00001154,0.00001324,0.00001772,0.0
 0005661,0.00000932,-0.00001041,-0.00002162,-0.00000512,0.00000325,-0.0
 0001559,0.00050568,-0.00011820,-0.00023240,-0.00010566,-0.00016321,0.0
 0017893,-0.00001437,-0.00003222,0.00006932,0.00004068,-0.00001288,0.00
 007404,-0.00000358,0.00003142,-0.00001023,0.00003972,-0.00002173,-0.00
 005540,-0.00000411,0.00001894,-0.00001713,0.00000401,0.00001557,-0.000
 01023,0.00004601,-0.00001489,0.00000786,-0.00003608,0.00005951,0.00007
 067,-0.00000165,-0.00004317,-0.00004325,0.00000198,0.00001177,-0.00000
 342,-0.00006994,0.00003184,-0.00004269,-0.00000487,-0.00000019,0.00000
 433,0.00176029,0.00419657,0.00328895,-0.00037150,0.00025521,-0.0002637
 3,0.00643496,-0.00449768,0.00239464,0.00400437,0.00361456,-0.00051417,
 -0.00049459,-0.00067663,-0.00025814,0.12812261,-0.19092694,0.08027248,
 -0.00224200,-0.00146395,-0.00112946,0.00538093,-0.00521318,0.00575101,
 0.00041417,-0.00023907,0.00039970,-0.14138595,0.19653867,-0.00000464,0
 .00001822,-0.00001717,-0.00001034,-0.00000398,0.00002685,-0.00001287,-
 0.00002244,0.00000196,-0.00000295,-0.00001756,0.00000774,0.00000164,0.
 00000872,-0.00000500,-0.00001857,0.00002897,-0.00001253,0.00002497,-0.
 00000322,-0.00000495,0.00000661,-0.00000719,-0.00000686,0.00000408,-0.
 00000183,-0.00000297,0.00000114,0.00004028,-0.00004242,-0.00011649,-0.
 00009990,0.00008210,0.00000745,-0.00000434,-0.00000034,0.00000847,0.00
 006020,-0.00003893,0.00002002,-0.00000472,-0.00001786,-0.00000715,-0.0
 0002516,0.00001940,0.00002088,-0.00003133,0.00001213,0.00000581,-0.000
 00188,-0.00000343,-0.00000129,0.00000344,-0.00000454,-0.00000697,0.000
 00654,0.00000169,0.00000417,-0.00000200,0.00000601,0.00000936,-0.00000
 291,0.00000412,0.00000137,-0.00000345,-0.00000104,-0.00000093,0.000003
 36,0.00000057,0.00000197,-0.00000401,-0.00000660,0.00000771,-0.0000010
 7,-0.00000250,0.00000240,-0.00000280,-0.00000127,0.00008765,-0.0000885
 4,-0.00009297,0.00013681,0.00007220,-0.00001403,-0.00001964,-0.0000279
 3,-0.00004436,-0.00003401,-0.00001401,0.00001821,0.00002693,-0.0000086
 0,-0.00000481,-0.00001207,-0.00001058,-0.00001283,0.00000448,0.0000014
 8,0.00000104,0.00000862,-0.00002712,0.00003501,0.00001778,0.00000023,-
 0.00001736,0.00000027,0.00000307,0.00000099,-0.00000331,0.00000783,-0.
 00000088,-0.00000420,-0.00000208,0.00000407,0.00000400,-0.00000831,-0.
 00000168,0.00000374,0.00000310,0.00000030,-0.00000446,-0.00000776,0.00
 000294,-0.00000772,0.00004573,0.00004158,-0.00001554,0.00003199,-0.000
 01958,-0.00002819,0.00002637,-0.00000648,-0.00000602,-0.00001455,0.000
 01213,-0.00130485,0.00094391,0.00040021,0.00001847,0.00022231,-0.00049
 361,0.00004496,0.00001990,-0.00002409,-0.00002058,-0.00002941,-0.00004
 389,0.00000881,-0.00001050,0.00000917,0.00001132,0.00012876,0.00004646
 ,-0.00000386,-0.00002050,-0.00000066,-0.00000558,-0.00001231,0.0000046
 2,-0.00000502,-0.00003483,0.00001944,0.00004754,-0.00004536,-0.0000453
 1,0.00000670,0.00000418,-0.00000015,-0.00000458,-0.00000583,0.00000072
 ,0.00000567,0.00001101,0.00001985,-0.00000786,-0.00001026,-0.00000568,
 0.00374367,0.00281990,-0.00397184,0.00068271,-0.00026964,-0.00089515,-
 0.01903902,0.02164446,-0.00686226,0.00407010,0.00034187,-0.00088775,-0
 .00039986,-0.00026250,-0.00002382,-0.05611908,0.08031956,-0.09598472,-
 0.00100407,-0.00158226,0.00064605,0.01097326,-0.01389535,0.01061991,0.
 00070592,-0.00068108,0.00047505,0.05897620,-0.08870901,0.09674083,0.00
 001223,0.00001113,0.00000194,0.00000191,-0.00000692,0.00000619,0.00000
 028,-0.00000251,0.00000152,-0.00000275,-0.00000064,0.00000039,-0.00000
 380,-0.00000183,-0.00000221,-0.00000746,0.00000277,-0.00000103,0.00000
 018,0.,-0.00000146,0.00000039,0.00000187,0.00000003,0.00000092,0.00000
 036,-0.00000056,-0.00000399,0.00001157,0.00000915,0.00007400,-0.000005
 79,-0.00005365,0.00000742,0.00000255,-0.00000882,-0.00001443,-0.000014
 70,0.00000886,-0.00000096,-0.00000741,0.00000479,-0.00000420,-0.000000
 76,-0.00000092,0.00000101,0.00000562,0.00000245,-0.00000054,-0.0000003
 1,0.00000183,-0.00000034,-0.00000246,0.00000229,-0.00000081,-0.0000008
 9,0.00000004,-0.00000040,-0.00000001,0.00000178,-0.00000048,0.00000145
 ,-0.00000116,0.00000062,-0.00000037,-0.00000087,-0.00000030,0.00000018
 ,-0.00000154,-0.00000040,0.00000029,0.00000009,-0.00000087,0.00000082,
 0.00000042,-0.00000037,-0.00000065,0.00000130,0.00005818,-0.00002418,0
 .00004562,-0.00000797,-0.00000265,-0.00000906,-0.00000013,-0.00000022,
 0.00000259,-0.00000696,0.00000405,0.00000742,0.00000606,0.00000004,-0.
 00000014,0.00000285,-0.00000170,-0.00000242,0.00000416,-0.00000498,0.0
 0000449,-0.00001872,-0.00001233,-0.00000543,0.00001746,0.00000072,0.00
 000197,-0.00000245,0.00000051,-0.00000033,-0.00000193,0.00000087,0.000
 00211,-0.00000194,-0.00000007,-0.00000094,0.00000076,0.00000079,0.0000
 0054,-0.00000023,-0.00000168,-0.00000127,-0.00000303,-0.00000105,0.000
 00075,-0.00002131,-0.00000637,0.00000423,0.00002279,0.00000995,0.00000
 884,-0.00000834,0.00000699,-0.00001782,-0.00000976,-0.00000229,0.00000
 075,-0.00033289,-0.00057412,-0.00020955,-0.00002596,0.00000391,0.00006
 168,-0.00005729,-0.00003059,0.00010073,0.00000719,0.00000537,0.0000115
 3,-0.00000030,0.00000302,-0.00000812,-0.00000239,0.00002536,-0.0000062
 5,0.00000008,-0.00000511,-0.00000124,0.00000017,0.00000154,-0.00000161
 ,0.00000661,-0.00001870,0.00001994,0.00001015,-0.00001537,0.00000848,0
 .00000304,-0.00000358,-0.00001100,-0.00000184,0.00000011,-0.00000060,-
 0.00001208,0.00001134,-0.00000481,-0.00000791,-0.00000546,-0.00000287,
 -0.00090325,0.00041703,-0.00022076,0.00059676,0.00563292,0.00053850,-0
 .00061736,0.00521885,0.00330126,0.00658517,0.00580698,-0.01889051,0.00
 028842,0.00050871,-0.00095613,0.00036118,-0.00982839,0.02230510,-0.000
 01377,-0.00039434,0.00114137,-0.05764741,-0.00391120,0.04637405,-0.000
 81342,-0.00238952,-0.00066933,-0.00071174,-0.00200180,-0.00148192,0.05
 320248,0.00001568,0.00001802,0.00000994,-0.00000091,-0.00000479,-0.000
 00206,0.00000090,0.00000202,0.00000183,-0.00000448,-0.00000251,0.00000
 041,-0.00000028,0.00000248,0.00000049,-0.00000374,-0.00000513,0.000003
 01,0.00000036,0.00000177,-0.00000099,0.00000116,-0.00000079,-0.0000011
 6,0.00000032,-0.00000023,-0.00000178,-0.00000110,0.00000384,0.00001129
 ,0.00005084,0.00001042,-0.00002288,0.00000155,0.00000015,-0.00000579,-
 0.00000188,-0.00001576,0.00000270,-0.00000266,-0.00000322,0.00000401,-
 0.00000175,0.00000476,-0.00000251,-0.00000203,0.00000902,-0.00000223,-
 0.00000131,0.00000010,0.00000219,0.00000047,-0.00000184,0.00000108,0.0
 0000094,-0.00000207,-0.00000062,-0.00000127,0.00000017,0.00000105,-0.0
 0000084,0.00000183,-0.00000118,0.00000002,-0.00000066,-0.00000145,0.00
 000013,0.00000010,-0.00000179,-0.00000084,0.00000058,0.00000068,-0.000
 00170,0.00000114,0.00000082,-0.00000061,-0.00000024,0.00000139,-0.0000
 9528,0.00007425,0.00002453,0.00001374,-0.00000465,0.00001695,0.0000008
 5,0.00000292,0.00000662,0.00000770,-0.00000550,-0.00000712,-0.00000712
 ,0.00000602,-0.00000606,-0.00000059,0.00000307,0.00000032,-0.00000141,
 -0.00000078,0.00000610,-0.00001288,-0.00001070,-0.00001278,0.00000547,
 -0.00000302,0.00000145,0.00000052,-0.00000049,-0.00000119,0.00000048,0
 .00000214,0.00000089,-0.00000059,-0.00000029,-0.00000019,0.00000010,-0
 .00000088,-0.00000008,-0.00000090,-0.00000059,-0.00000117,-0.00000129,
 -0.00000130,0.00000121,0.00000425,-0.00001037,0.00000269,-0.00000804,0
 .00001151,0.00000588,0.00000288,-0.00000486,0.00001079,0.00000653,0.00
 000007,-0.00000324,-0.00049556,-0.00056852,-0.00023369,-0.00009405,0.0
 0009906,-0.00005025,-0.00010276,-0.00003776,0.00012858,-0.00000252,0.0
 0000048,-0.00000126,-0.00000074,-0.00000422,-0.00000211,0.00000308,0.0
 0000265,0.00000236,0.00000120,-0.00000354,0.00000193,0.00000083,0.0000
 0151,-0.00000148,0.00000306,-0.00000108,-0.00000383,-0.00000264,0.0000
 0033,-0.00000302,0.00000483,0.00000028,-0.00000019,-0.00000170,-0.0000
 0103,0.00000135,-0.00000210,0.00000655,0.00000186,-0.00000668,-0.00000
 128,-0.00000247,0.00052427,-0.00070640,-0.00045202,0.00605915,0.000801
 25,0.00220118,0.00477190,0.00262699,0.00044754,-0.00566995,-0.00385100
 ,0.02151890,-0.00011481,-0.00013533,0.00120109,0.00164516,0.00720333,-
 0.01272888,0.00021163,0.00036732,-0.00059647,-0.00391601,-0.07940748,0
 .09318995,-0.00209487,-0.00127303,-0.00156294,-0.00226539,-0.00137241,
 -0.00079948,0.00158329,0.07617762,0.00000093,0.00000121,0.00000560,0.0
 0000086,0.00000052,-0.00000876,0.00000081,0.00000370,-0.00000099,0.000
 00109,-0.00000148,-0.00000059,0.00000849,0.00000437,0.00000953,-0.0000
 0285,0.00000636,-0.00000424,-0.00000182,0.00000040,0.00000263,0.000001
 47,-0.00000504,0.00000064,-0.00000178,-0.00000385,-0.00000247,0.000010
 25,0.00002118,-0.00003925,-0.00008006,-0.00010235,0.00010644,-0.000004
 60,-0.00000438,0.00000581,0.00001749,0.00003638,-0.00003193,0.00001256
 ,-0.00000022,-0.00001477,-0.00000443,-0.00000784,0.00001486,0.00000446
 ,-0.00001080,0.00000864,0.00000443,0.00000121,-0.00000461,-0.00000095,
 0.00000556,-0.00000435,0.00000192,0.00000600,0.00000002,-0.00000030,0.
 00000010,-0.00000333,0.00000373,-0.00000216,0.00000297,-0.00000221,-0.
 00000364,-0.00000042,-0.00000082,0.00000265,0.00000175,0.00000223,-0.0
 0000348,-0.00000272,0.00000327,-0.00000163,-0.00000078,0.00000318,0.00
 000057,-0.00000437,0.00000062,0.00007198,-0.00024266,0.00008329,0.0000
 2389,0.00004282,-0.00000615,-0.00001420,-0.00001555,-0.00000782,0.0000
 0458,-0.00000032,0.00001318,-0.00000139,0.00000268,-0.00001195,-0.0000
 1031,-0.00001005,-0.00000358,0.00000357,-0.00000887,0.00002557,-0.0000
 0390,-0.00001296,-0.00003043,-0.00000550,0.00000287,0.00000528,-0.0000
 0272,-0.00000287,0.00000448,0.00000092,-0.00000204,0.00000539,-0.00000
 004,-0.00000044,-0.00000092,-0.00000107,0.00000128,-0.00000285,0.00000
 018,0.00000020,0.00000238,0.00000123,0.00000029,0.00002498,0.00003144,
 0.00000965,-0.00003865,0.00000975,0.00000570,0.00000173,0.00000123,0.0
 0002865,0.00001252,-0.00000198,-0.00000357,-0.00029315,-0.00032658,0.0
 0002564,-0.00002456,0.00003586,-0.00003299,-0.00001150,-0.00000627,0.0
 0002802,-0.00000782,-0.00000838,-0.00001019,0.00000515,-0.00000661,0.0
 0000617,0.00001376,-0.00002303,0.00000363,-0.00000062,-0.00000009,0.00
 000105,-0.00000350,0.00000018,0.00000051,0.00000214,0.00001285,-0.0000
 2248,-0.00001741,0.00002176,-0.00000245,-0.00000033,0.00000103,0.00000
 155,0.00000063,0.00000348,0.00000100,0.00000193,-0.00000590,0.00000404
 ,0.00000377,0.00000492,0.00000518,-0.00005982,-0.00041250,0.00042229,-
 0.00042518,0.00309675,0.00191405,0.00413043,-0.00055580,0.00102460,0.0
 0331467,0.00197149,-0.00735079,0.00025717,0.00018826,-0.00047035,0.000
 32869,0.00702030,-0.01209329,0.00001874,0.00044206,-0.00065411,0.04626
 537,0.09316660,-0.29754108,-0.00120561,-0.00108329,0.00027635,-0.00093
 670,-0.00128936,0.00036115,-0.05141068,-0.10229875,0.31427237\\0.00000
 065,-0.00001048,0.00000662,-0.00000048,0.00000864,0.00000217,-0.000005
 73,-0.00000395,-0.00000397,0.00000429,-0.00000303,0.00000498,-0.000001
 13,0.00000500,0.00000120,-0.00001079,-0.00000145,-0.00000376,-0.000001
 39,-0.00000083,0.00000035,-0.00000121,-0.00000045,0.00000075,-0.000000
 29,-0.00000049,0.00000052,0.00000437,-0.00000007,-0.00000450,-0.000005
 45,-0.00000776,0.00000292,-0.00000173,-0.00000097,0.00000091,0.0000010
 5,0.00000029,0.00000108,0.00000062,0.00000030,-0.00000033,-0.00000016,
 -0.00000047,-0.00000077,-0.00000030,-0.00000022,0.00000234,0.00000064,
 -0.00000088,-0.00000015,0.00000085,-0.00000014,-0.00000037,0.00000104,
 0.00000090,0.00000054,-0.00000022,-0.00000068,0.00000095,0.00000030,-0
 .00000085,0.00000017,-0.00000072,-0.00000008,0.00000043,0.00000038,0.0
 0000023,0.00000019,-0.00000028,-0.00000010,-0.00000026,-0.00000038,-0.
 00000077,-0.00000079,0.00000005,-0.00000099,-0.00000034,0.00000400,0.0
 0001426,-0.00000166,0.00000091,-0.00000148,-0.00000357,0.00000151,-0.0
 0000304,0.00000081,0.00000153,0.00000026,0.00000190,0.00000023,0.00000
 145,0.00000018,-0.00000108,0.00000108,0.00000002,0.00000019,0.00000074
 ,-0.00000029,0.00001304,0.00000167,-0.00000174,-0.00000872,0.00000084,
 0.00000248,0.00000140,-0.00000056,-0.00000163,-0.00000008,-0.00000162,
 0.00000076,0.00000031,-0.00000124,0.00000041,0.00000027,-0.00000039,-0
 .00000029,-0.00000159,0.00000025,0.00000079,0.00000101,-0.00000097,0.0
 0000069,0.00000021,-0.00000099,0.00000110,-0.00000543,0.00000142,0.000
 00201,0.00000098,-0.00000062,-0.00000084,0.00000035,-0.00000010,-0.000
 00092,0.00000504,-0.00000348,-0.00000498,-0.00000051,0.00000154,0.0000
 0039,-0.00000042,0.00000206,-0.00000107,-0.00000074,0.00000044,-0.0000
 0167,0.00000184,0.00000061,0.00000265,0.00000107,0.,-0.00000402,0.0000
 0030,-0.00000006,-0.00000263,0.00000021,-0.00000033,-0.00000098,0.0000
 0161,0.00000077,0.00000141,0.00000007,-0.00000045,0.00000115,-0.000000
 42,-0.00000171,0.00000060,0.00000064,0.00000010,-0.00000039,-0.0000004
 3,0.00000008,0.00000015,0.00000027,0.00000036,-0.00000017,0.00000051,-
 0.00000013,0.,-0.00000018,0.00000008,-0.00000028,-0.00000087,-0.000000
 11,-0.00000029,-0.00000070,0.00000134,-0.00000050,0.00000005,0.0000010
 9,-0.00000031,-0.00000017,0.00000086,-0.00000185,-0.00000035,0.0000003
 8,0.00000036,0.00000021,0.00000139,0.,0.00000014,0.00000119,0.00000019
 ,-0.00000009,0.00000117,0.00000089,-0.00000009,0.00000113,0.00000027\\
 \@
 The archive entry for this job was punched.


 SIC AS THE CAWSE OF EWERY THING IS, SIC WILBE THE EFFECT.
 -- PROVERBS AND REASONS OF THE YEAR 1585
           AS REPRINTED IN PAISLEY MAGAZINE 1828.
 Job cpu time:       0 days 18 hours 10 minutes 16.2 seconds.
 Elapsed time:       0 days  1 hours 10 minutes 28.7 seconds.
 File lengths (MBytes):  RWF=   2878 Int=      0 D2E=      0 Chk=     54 Scr=      1
 Normal termination of Gaussian 16 at Fri Oct 29 19:10:41 2021.
