 Entering Gaussian System, Link 0=/home/rong/g16/g16
 Input=/home/rong/g16/102121/benzCHCHbenzNMeCH2CH3.gjf
 Output=/home/rong/g16/102121/benzCHCHbenzNMeCH2CH3.log
 Initial command:
 /home/rong/g16/l1.exe "/tmp/Gau-69009.inp" -scrdir="/tmp/"
 Default is to use a total of   8 processors:
                                8 via shared-memory
                                1 via Linda
 Entering Link 1 = /home/rong/g16/l1.exe PID=     69011.
  
 Copyright (c) 1988-2019, Gaussian, Inc.  All Rights Reserved.
  
 This is part of the Gaussian(R) 16 program.  It is based on
 the Gaussian(R) 09 system (copyright 2009, Gaussian, Inc.),
 the Gaussian(R) 03 system (copyright 2003, Gaussian, Inc.),
 the Gaussian(R) 98 system (copyright 1998, Gaussian, Inc.),
 the Gaussian(R) 94 system (copyright 1995, Gaussian, Inc.),
 the Gaussian 92(TM) system (copyright 1992, Gaussian, Inc.),
 the Gaussian 90(TM) system (copyright 1990, Gaussian, Inc.),
 the Gaussian 88(TM) system (copyright 1988, Gaussian, Inc.),
 the Gaussian 86(TM) system (copyright 1986, Carnegie Mellon
 University), and the Gaussian 82(TM) system (copyright 1983,
 Carnegie Mellon University). Gaussian is a federally registered
 trademark of Gaussian, Inc.
  
 This software contains proprietary and confidential information,
 including trade secrets, belonging to Gaussian, Inc.
  
 This software is provided under written license and may be
 used, copied, transmitted, or stored only in accord with that
 written license.
  
 The following legend is applicable only to US Government
 contracts under FAR:
  
                    RESTRICTED RIGHTS LEGEND
  
 Use, reproduction and disclosure by the US Government is
 subject to restrictions as set forth in subparagraphs (a)
 and (c) of the Commercial Computer Software - Restricted
 Rights clause in FAR 52.227-19.
  
 Gaussian, Inc.
 340 Quinnipiac St., Bldg. 40, Wallingford CT 06492
  
  
 ---------------------------------------------------------------
 Warning -- This program may not be used in any manner that
 competes with the business of Gaussian, Inc. or will provide
 assistance to any competitor of Gaussian, Inc.  The licensee
 of this program is prohibited from giving any competitor of
 Gaussian, Inc. access to this program.  By using this program,
 the user acknowledges that Gaussian, Inc. is engaged in the
 business of creating and licensing software in the field of
 computational chemistry and represents and warrants to the
 licensee that it is not a competitor of Gaussian, Inc. and that
 it will not use this program in any manner prohibited above.
 ---------------------------------------------------------------
  

 Cite this work as:
 Gaussian 16, Revision C.01,
 M. J. Frisch, G. W. Trucks, H. B. Schlegel, G. E. Scuseria, 
 M. A. Robb, J. R. Cheeseman, G. Scalmani, V. Barone, 
 G. A. Petersson, H. Nakatsuji, X. Li, M. Caricato, A. V. Marenich, 
 J. Bloino, B. G. Janesko, R. Gomperts, B. Mennucci, H. P. Hratchian, 
 J. V. Ortiz, A. F. Izmaylov, J. L. Sonnenberg, D. Williams-Young, 
 F. Ding, F. Lipparini, F. Egidi, J. Goings, B. Peng, A. Petrone, 
 T. Henderson, D. Ranasinghe, V. G. Zakrzewski, J. Gao, N. Rega, 
 G. Zheng, W. Liang, M. Hada, M. Ehara, K. Toyota, R. Fukuda, 
 J. Hasegawa, M. Ishida, T. Nakajima, Y. Honda, O. Kitao, H. Nakai, 
 T. Vreven, K. Throssell, J. A. Montgomery, Jr., J. E. Peralta, 
 F. Ogliaro, M. J. Bearpark, J. J. Heyd, E. N. Brothers, K. N. Kudin, 
 V. N. Staroverov, T. A. Keith, R. Kobayashi, J. Normand, 
 K. Raghavachari, A. P. Rendell, J. C. Burant, S. S. Iyengar, 
 J. Tomasi, M. Cossi, J. M. Millam, M. Klene, C. Adamo, R. Cammi, 
 J. W. Ochterski, R. L. Martin, K. Morokuma, O. Farkas, 
 J. B. Foresman, and D. J. Fox, Gaussian, Inc., Wallingford CT, 2019.
 
 ******************************************
 Gaussian 16:  ES64L-G16RevC.01  3-Jul-2019
                23-Oct-2021 
 ******************************************
 %mem=15GB
 %chk=benzCHCHbenzNMeCH2CH3.chk
 %nprocshared=8
 Will use up to    8 processors via shared memory.
 -------------------------------------------------
 # opt freq b3lyp/6-31g scrf=(smd,solvent=toluene)
 -------------------------------------------------
 1/18=20,19=15,26=3,38=1/1,3;
 2/9=110,12=2,17=6,18=5,40=1/2;
 3/5=1,6=6,11=2,25=1,30=1,70=32201,71=1,72=13,74=-5/1,2,3;
 4//1;
 5/5=2,38=5,53=13/2;
 6/7=2,8=2,9=2,10=2,28=1/1;
 7//1,2,3,16;
 1/18=20,19=15,26=3/3(2);
 2/9=110/2;
 99//99;
 2/9=110/2;
 3/5=1,6=6,11=2,25=1,30=1,70=32205,71=1,72=13,74=-5/1,2,3;
 4/5=5,16=3,69=1/1;
 5/5=2,38=5,53=13/2;
 7//1,2,3,16;
 1/18=20,19=15,26=3/3(-5);
 2/9=110/2;
 6/7=2,8=2,9=2,10=2,19=2,28=1/1;
 99/9=1/99;
 ---------------------
 BenzCHCHBenzNMeCH2CH3
 ---------------------
 Symbolic Z-matrix:
 Charge =  0 Multiplicity = 1
 C                    -3.83801   1.1767    0.03484 
 C                    -2.44285   1.1767    0.03484 
 C                    -1.74531   2.38445   0.03484 
 C                    -2.44296   3.59296   0.03364 
 C                    -3.83779   3.59288   0.03316 
 C                    -4.53539   2.38467   0.03416 
 H                    -4.38777   0.22438   0.03529 
 H                    -0.64563   2.38453   0.03547 
 H                    -1.89276   4.5451    0.03358 
 H                    -4.38791   4.54516   0.03221 
 H                    -5.63499   2.38486   0.03398 
 C                    -1.6733   -0.15724   0.03668 
 H                    -1.50992  -0.47336   1.04578 
 C                    -0.31709   0.03156  -0.66806 
 H                    -0.46525   0.54517  -1.59497 
 C                     0.61896   0.85829   0.233 
 C                     1.38907   1.88398  -0.31596 
 C                     0.6968    0.58178   1.59793 
 C                     2.23732   2.63249   0.49978 
 H                     1.32805   2.10122  -1.39221 
 C                     1.54452   1.33107   2.41423 
 H                     0.08977  -0.22647   2.0308 
 C                     2.31483   2.35622   1.86539 
 H                     2.84483   3.44055   0.06705 
 H                     1.60538   1.1131    3.49045 
 H                     2.98367   2.94657   2.50838 
 N                    -2.45773  -1.17646  -0.67518 
 N                     0.28751  -1.283    -0.92748 
 C                    -3.10477  -2.06617   0.29984 
 H                    -4.0928   -2.30395  -0.03508 
 H                    -2.53411  -2.96628   0.39491 
 H                    -3.15839  -1.57588   1.24939 
 C                     1.70081  -1.10892  -1.29239 
 H                     1.80639  -0.2378   -1.9047 
 H                     2.28687  -0.99399  -0.40457 
 H                     2.03791  -1.96824  -1.83353 
 C                    -0.42606  -1.94131  -2.03127 
 H                    -1.02308  -1.22069  -2.55009 
 H                     0.28257  -2.37109  -2.70805 
 C                    -3.48501  -0.51927  -1.49597 
 H                    -4.37431  -0.38701  -0.91583 
 H                    -3.12567   0.43491  -1.82049 
 C                    -3.79848  -1.39444  -2.72374 
 H                    -4.83795  -1.31271  -2.96397 
 H                    -3.21298  -1.06399  -3.55614 
 H                    -3.56229  -2.41468  -2.50416 
 C                    -1.33424  -3.04956  -1.46683 
 H                    -1.30025  -3.02846  -0.39758 
 H                    -2.33983  -2.88824  -1.79496 
 H                    -0.99366  -4.002    -1.81578 
 

 GradGradGradGradGradGradGradGradGradGradGradGradGradGradGradGradGradGrad
 Berny optimization.
 Initialization pass.
                           ----------------------------
                           !    Initial Parameters    !
                           ! (Angstroms and Degrees)  !
 --------------------------                            --------------------------
 ! Name  Definition              Value          Derivative Info.                !
 --------------------------------------------------------------------------------
 ! R1    R(1,2)                  1.3952         estimate D2E/DX2                !
 ! R2    R(1,6)                  1.3948         estimate D2E/DX2                !
 ! R3    R(1,7)                  1.0996         estimate D2E/DX2                !
 ! R4    R(2,3)                  1.3947         estimate D2E/DX2                !
 ! R5    R(2,12)                 1.54           estimate D2E/DX2                !
 ! R6    R(3,4)                  1.3954         estimate D2E/DX2                !
 ! R7    R(3,8)                  1.0997         estimate D2E/DX2                !
 ! R8    R(4,5)                  1.3948         estimate D2E/DX2                !
 ! R9    R(4,9)                  1.0997         estimate D2E/DX2                !
 ! R10   R(5,6)                  1.3951         estimate D2E/DX2                !
 ! R11   R(5,10)                 1.0998         estimate D2E/DX2                !
 ! R12   R(6,11)                 1.0996         estimate D2E/DX2                !
 ! R13   R(12,13)                1.07           estimate D2E/DX2                !
 ! R14   R(12,14)                1.54           estimate D2E/DX2                !
 ! R15   R(12,27)                1.47           estimate D2E/DX2                !
 ! R16   R(14,15)                1.07           estimate D2E/DX2                !
 ! R17   R(14,16)                1.54           estimate D2E/DX2                !
 ! R18   R(14,28)                1.47           estimate D2E/DX2                !
 ! R19   R(16,17)                1.3952         estimate D2E/DX2                !
 ! R20   R(16,18)                1.3948         estimate D2E/DX2                !
 ! R21   R(17,19)                1.3947         estimate D2E/DX2                !
 ! R22   R(17,20)                1.0997         estimate D2E/DX2                !
 ! R23   R(18,21)                1.3951         estimate D2E/DX2                !
 ! R24   R(18,22)                1.0996         estimate D2E/DX2                !
 ! R25   R(19,23)                1.3954         estimate D2E/DX2                !
 ! R26   R(19,24)                1.0997         estimate D2E/DX2                !
 ! R27   R(21,23)                1.3948         estimate D2E/DX2                !
 ! R28   R(21,25)                1.0998         estimate D2E/DX2                !
 ! R29   R(23,26)                1.0997         estimate D2E/DX2                !
 ! R30   R(27,29)                1.47           estimate D2E/DX2                !
 ! R31   R(27,40)                1.47           estimate D2E/DX2                !
 ! R32   R(28,33)                1.47           estimate D2E/DX2                !
 ! R33   R(28,37)                1.47           estimate D2E/DX2                !
 ! R34   R(29,30)                1.07           estimate D2E/DX2                !
 ! R35   R(29,31)                1.07           estimate D2E/DX2                !
 ! R36   R(29,32)                1.07           estimate D2E/DX2                !
 ! R37   R(33,34)                1.07           estimate D2E/DX2                !
 ! R38   R(33,35)                1.07           estimate D2E/DX2                !
 ! R39   R(33,36)                1.07           estimate D2E/DX2                !
 ! R40   R(37,38)                1.07           estimate D2E/DX2                !
 ! R41   R(37,39)                1.07           estimate D2E/DX2                !
 ! R42   R(37,47)                1.54           estimate D2E/DX2                !
 ! R43   R(40,41)                1.07           estimate D2E/DX2                !
 ! R44   R(40,42)                1.07           estimate D2E/DX2                !
 ! R45   R(40,43)                1.54           estimate D2E/DX2                !
 ! R46   R(43,44)                1.07           estimate D2E/DX2                !
 ! R47   R(43,45)                1.07           estimate D2E/DX2                !
 ! R48   R(43,46)                1.07           estimate D2E/DX2                !
 ! R49   R(47,48)                1.07           estimate D2E/DX2                !
 ! R50   R(47,49)                1.07           estimate D2E/DX2                !
 ! R51   R(47,50)                1.07           estimate D2E/DX2                !
 ! A1    A(2,1,6)              119.9985         estimate D2E/DX2                !
 ! A2    A(2,1,7)              119.9972         estimate D2E/DX2                !
 ! A3    A(6,1,7)              120.0043         estimate D2E/DX2                !
 ! A4    A(1,2,3)              120.0086         estimate D2E/DX2                !
 ! A5    A(1,2,12)             119.9808         estimate D2E/DX2                !
 ! A6    A(3,2,12)             120.0105         estimate D2E/DX2                !
 ! A7    A(2,3,4)              119.9942         estimate D2E/DX2                !
 ! A8    A(2,3,8)              120.0128         estimate D2E/DX2                !
 ! A9    A(4,3,8)              119.993          estimate D2E/DX2                !
 ! A10   A(3,4,5)              119.994          estimate D2E/DX2                !
 ! A11   A(3,4,9)              119.9811         estimate D2E/DX2                !
 ! A12   A(5,4,9)              120.0249         estimate D2E/DX2                !
 ! A13   A(4,5,6)              120.0047         estimate D2E/DX2                !
 ! A14   A(4,5,10)             120.0113         estimate D2E/DX2                !
 ! A15   A(6,5,10)             119.984          estimate D2E/DX2                !
 ! A16   A(1,6,5)              120.0            estimate D2E/DX2                !
 ! A17   A(1,6,11)             120.008          estimate D2E/DX2                !
 ! A18   A(5,6,11)             119.992          estimate D2E/DX2                !
 ! A19   A(2,12,13)            109.4712         estimate D2E/DX2                !
 ! A20   A(2,12,14)            109.4712         estimate D2E/DX2                !
 ! A21   A(2,12,27)            109.4712         estimate D2E/DX2                !
 ! A22   A(13,12,14)           109.4712         estimate D2E/DX2                !
 ! A23   A(13,12,27)           109.4713         estimate D2E/DX2                !
 ! A24   A(14,12,27)           109.4712         estimate D2E/DX2                !
 ! A25   A(12,14,15)           109.4712         estimate D2E/DX2                !
 ! A26   A(12,14,16)           109.4712         estimate D2E/DX2                !
 ! A27   A(12,14,28)           109.4712         estimate D2E/DX2                !
 ! A28   A(15,14,16)           109.4712         estimate D2E/DX2                !
 ! A29   A(15,14,28)           109.4712         estimate D2E/DX2                !
 ! A30   A(16,14,28)           109.4713         estimate D2E/DX2                !
 ! A31   A(14,16,17)           119.9972         estimate D2E/DX2                !
 ! A32   A(14,16,18)           120.0043         estimate D2E/DX2                !
 ! A33   A(17,16,18)           119.9985         estimate D2E/DX2                !
 ! A34   A(16,17,19)           120.0086         estimate D2E/DX2                !
 ! A35   A(16,17,20)           119.9808         estimate D2E/DX2                !
 ! A36   A(19,17,20)           120.0106         estimate D2E/DX2                !
 ! A37   A(16,18,21)           120.0            estimate D2E/DX2                !
 ! A38   A(16,18,22)           120.008          estimate D2E/DX2                !
 ! A39   A(21,18,22)           119.992          estimate D2E/DX2                !
 ! A40   A(17,19,23)           119.9942         estimate D2E/DX2                !
 ! A41   A(17,19,24)           120.0128         estimate D2E/DX2                !
 ! A42   A(23,19,24)           119.993          estimate D2E/DX2                !
 ! A43   A(18,21,23)           120.0047         estimate D2E/DX2                !
 ! A44   A(18,21,25)           119.984          estimate D2E/DX2                !
 ! A45   A(23,21,25)           120.0113         estimate D2E/DX2                !
 ! A46   A(19,23,21)           119.994          estimate D2E/DX2                !
 ! A47   A(19,23,26)           119.9811         estimate D2E/DX2                !
 ! A48   A(21,23,26)           120.0249         estimate D2E/DX2                !
 ! A49   A(12,27,29)           109.4712         estimate D2E/DX2                !
 ! A50   A(12,27,40)           109.4712         estimate D2E/DX2                !
 ! A51   A(29,27,40)           109.4713         estimate D2E/DX2                !
 ! A52   A(14,28,33)           109.4712         estimate D2E/DX2                !
 ! A53   A(14,28,37)           109.4712         estimate D2E/DX2                !
 ! A54   A(33,28,37)           109.4713         estimate D2E/DX2                !
 ! A55   A(27,29,30)           109.4712         estimate D2E/DX2                !
 ! A56   A(27,29,31)           109.4712         estimate D2E/DX2                !
 ! A57   A(27,29,32)           109.4712         estimate D2E/DX2                !
 ! A58   A(30,29,31)           109.4713         estimate D2E/DX2                !
 ! A59   A(30,29,32)           109.4712         estimate D2E/DX2                !
 ! A60   A(31,29,32)           109.4712         estimate D2E/DX2                !
 ! A61   A(28,33,34)           109.4712         estimate D2E/DX2                !
 ! A62   A(28,33,35)           109.4712         estimate D2E/DX2                !
 ! A63   A(28,33,36)           109.4712         estimate D2E/DX2                !
 ! A64   A(34,33,35)           109.4713         estimate D2E/DX2                !
 ! A65   A(34,33,36)           109.4712         estimate D2E/DX2                !
 ! A66   A(35,33,36)           109.4712         estimate D2E/DX2                !
 ! A67   A(28,37,38)           109.4712         estimate D2E/DX2                !
 ! A68   A(28,37,39)           109.4712         estimate D2E/DX2                !
 ! A69   A(28,37,47)           109.4712         estimate D2E/DX2                !
 ! A70   A(38,37,39)           109.4712         estimate D2E/DX2                !
 ! A71   A(38,37,47)           109.4713         estimate D2E/DX2                !
 ! A72   A(39,37,47)           109.4712         estimate D2E/DX2                !
 ! A73   A(27,40,41)           109.4712         estimate D2E/DX2                !
 ! A74   A(27,40,42)           109.4712         estimate D2E/DX2                !
 ! A75   A(27,40,43)           109.4712         estimate D2E/DX2                !
 ! A76   A(41,40,42)           109.4713         estimate D2E/DX2                !
 ! A77   A(41,40,43)           109.4712         estimate D2E/DX2                !
 ! A78   A(42,40,43)           109.4712         estimate D2E/DX2                !
 ! A79   A(40,43,44)           109.4712         estimate D2E/DX2                !
 ! A80   A(40,43,45)           109.4712         estimate D2E/DX2                !
 ! A81   A(40,43,46)           109.4712         estimate D2E/DX2                !
 ! A82   A(44,43,45)           109.4713         estimate D2E/DX2                !
 ! A83   A(44,43,46)           109.4712         estimate D2E/DX2                !
 ! A84   A(45,43,46)           109.4712         estimate D2E/DX2                !
 ! A85   A(37,47,48)           109.4712         estimate D2E/DX2                !
 ! A86   A(37,47,49)           109.4712         estimate D2E/DX2                !
 ! A87   A(37,47,50)           109.4712         estimate D2E/DX2                !
 ! A88   A(48,47,49)           109.4713         estimate D2E/DX2                !
 ! A89   A(48,47,50)           109.4712         estimate D2E/DX2                !
 ! A90   A(49,47,50)           109.4712         estimate D2E/DX2                !
 ! D1    D(6,1,2,3)              0.0323         estimate D2E/DX2                !
 ! D2    D(6,1,2,12)           179.9532         estimate D2E/DX2                !
 ! D3    D(7,1,2,3)           -179.9729         estimate D2E/DX2                !
 ! D4    D(7,1,2,12)            -0.052          estimate D2E/DX2                !
 ! D5    D(2,1,6,5)              0.0149         estimate D2E/DX2                !
 ! D6    D(2,1,6,11)           179.9892         estimate D2E/DX2                !
 ! D7    D(7,1,6,5)           -179.9798         estimate D2E/DX2                !
 ! D8    D(7,1,6,11)            -0.0056         estimate D2E/DX2                !
 ! D9    D(1,2,3,4)             -0.0568         estimate D2E/DX2                !
 ! D10   D(1,2,3,8)            179.9619         estimate D2E/DX2                !
 ! D11   D(12,2,3,4)          -179.9777         estimate D2E/DX2                !
 ! D12   D(12,2,3,8)             0.041          estimate D2E/DX2                !
 ! D13   D(1,2,12,13)          -89.0261         estimate D2E/DX2                !
 ! D14   D(1,2,12,14)          150.9739         estimate D2E/DX2                !
 ! D15   D(1,2,12,27)           30.9739         estimate D2E/DX2                !
 ! D16   D(3,2,12,13)           90.8948         estimate D2E/DX2                !
 ! D17   D(3,2,12,14)          -29.1052         estimate D2E/DX2                !
 ! D18   D(3,2,12,27)         -149.1052         estimate D2E/DX2                !
 ! D19   D(2,3,4,5)              0.0341         estimate D2E/DX2                !
 ! D20   D(2,3,4,9)           -179.9964         estimate D2E/DX2                !
 ! D21   D(8,3,4,5)           -179.9846         estimate D2E/DX2                !
 ! D22   D(8,3,4,9)             -0.0151         estimate D2E/DX2                !
 ! D23   D(3,4,5,6)              0.0131         estimate D2E/DX2                !
 ! D24   D(3,4,5,10)          -179.9995         estimate D2E/DX2                !
 ! D25   D(9,4,5,6)           -179.9563         estimate D2E/DX2                !
 ! D26   D(9,4,5,10)             0.0311         estimate D2E/DX2                !
 ! D27   D(4,5,6,1)             -0.0376         estimate D2E/DX2                !
 ! D28   D(4,5,6,11)           179.9881         estimate D2E/DX2                !
 ! D29   D(10,5,6,1)           179.975          estimate D2E/DX2                !
 ! D30   D(10,5,6,11)            0.0007         estimate D2E/DX2                !
 ! D31   D(2,12,14,15)         -47.7967         estimate D2E/DX2                !
 ! D32   D(2,12,14,16)          72.2032         estimate D2E/DX2                !
 ! D33   D(2,12,14,28)        -167.7967         estimate D2E/DX2                !
 ! D34   D(13,12,14,15)       -167.7967         estimate D2E/DX2                !
 ! D35   D(13,12,14,16)        -47.7967         estimate D2E/DX2                !
 ! D36   D(13,12,14,28)         72.2033         estimate D2E/DX2                !
 ! D37   D(27,12,14,15)         72.2032         estimate D2E/DX2                !
 ! D38   D(27,12,14,16)       -167.7968         estimate D2E/DX2                !
 ! D39   D(27,12,14,28)        -47.7968         estimate D2E/DX2                !
 ! D40   D(2,12,27,29)        -102.6054         estimate D2E/DX2                !
 ! D41   D(2,12,27,40)          17.3947         estimate D2E/DX2                !
 ! D42   D(13,12,27,29)         17.3946         estimate D2E/DX2                !
 ! D43   D(13,12,27,40)        137.3946         estimate D2E/DX2                !
 ! D44   D(14,12,27,29)        137.3946         estimate D2E/DX2                !
 ! D45   D(14,12,27,40)       -102.6053         estimate D2E/DX2                !
 ! D46   D(12,14,16,17)       -136.2324         estimate D2E/DX2                !
 ! D47   D(12,14,16,18)         43.7623         estimate D2E/DX2                !
 ! D48   D(15,14,16,17)        -16.2324         estimate D2E/DX2                !
 ! D49   D(15,14,16,18)        163.7623         estimate D2E/DX2                !
 ! D50   D(28,14,16,17)        103.7676         estimate D2E/DX2                !
 ! D51   D(28,14,16,18)        -76.2377         estimate D2E/DX2                !
 ! D52   D(12,14,28,33)       -166.3265         estimate D2E/DX2                !
 ! D53   D(12,14,28,37)         73.6735         estimate D2E/DX2                !
 ! D54   D(15,14,28,33)         73.6735         estimate D2E/DX2                !
 ! D55   D(15,14,28,37)        -46.3265         estimate D2E/DX2                !
 ! D56   D(16,14,28,33)        -46.3265         estimate D2E/DX2                !
 ! D57   D(16,14,28,37)       -166.3265         estimate D2E/DX2                !
 ! D58   D(14,16,17,19)       -179.9729         estimate D2E/DX2                !
 ! D59   D(14,16,17,20)         -0.052          estimate D2E/DX2                !
 ! D60   D(18,16,17,19)          0.0323         estimate D2E/DX2                !
 ! D61   D(18,16,17,20)        179.9532         estimate D2E/DX2                !
 ! D62   D(14,16,18,21)       -179.9798         estimate D2E/DX2                !
 ! D63   D(14,16,18,22)         -0.0056         estimate D2E/DX2                !
 ! D64   D(17,16,18,21)          0.0149         estimate D2E/DX2                !
 ! D65   D(17,16,18,22)        179.9892         estimate D2E/DX2                !
 ! D66   D(16,17,19,23)         -0.0568         estimate D2E/DX2                !
 ! D67   D(16,17,19,24)        179.9619         estimate D2E/DX2                !
 ! D68   D(20,17,19,23)       -179.9777         estimate D2E/DX2                !
 ! D69   D(20,17,19,24)          0.041          estimate D2E/DX2                !
 ! D70   D(16,18,21,23)         -0.0376         estimate D2E/DX2                !
 ! D71   D(16,18,21,25)        179.975          estimate D2E/DX2                !
 ! D72   D(22,18,21,23)        179.9881         estimate D2E/DX2                !
 ! D73   D(22,18,21,25)          0.0007         estimate D2E/DX2                !
 ! D74   D(17,19,23,21)          0.0341         estimate D2E/DX2                !
 ! D75   D(17,19,23,26)       -179.9964         estimate D2E/DX2                !
 ! D76   D(24,19,23,21)       -179.9846         estimate D2E/DX2                !
 ! D77   D(24,19,23,26)         -0.0151         estimate D2E/DX2                !
 ! D78   D(18,21,23,19)          0.0131         estimate D2E/DX2                !
 ! D79   D(18,21,23,26)       -179.9563         estimate D2E/DX2                !
 ! D80   D(25,21,23,19)       -179.9995         estimate D2E/DX2                !
 ! D81   D(25,21,23,26)          0.0311         estimate D2E/DX2                !
 ! D82   D(12,27,29,30)        140.6427         estimate D2E/DX2                !
 ! D83   D(12,27,29,31)        -99.3573         estimate D2E/DX2                !
 ! D84   D(12,27,29,32)         20.6427         estimate D2E/DX2                !
 ! D85   D(40,27,29,30)         20.6427         estimate D2E/DX2                !
 ! D86   D(40,27,29,31)        140.6427         estimate D2E/DX2                !
 ! D87   D(40,27,29,32)        -99.3573         estimate D2E/DX2                !
 ! D88   D(12,27,40,41)        -88.9774         estimate D2E/DX2                !
 ! D89   D(12,27,40,42)         31.0226         estimate D2E/DX2                !
 ! D90   D(12,27,40,43)        151.0226         estimate D2E/DX2                !
 ! D91   D(29,27,40,41)         31.0225         estimate D2E/DX2                !
 ! D92   D(29,27,40,42)        151.0226         estimate D2E/DX2                !
 ! D93   D(29,27,40,43)        -88.9774         estimate D2E/DX2                !
 ! D94   D(14,28,33,34)        -38.2998         estimate D2E/DX2                !
 ! D95   D(14,28,33,35)         81.7002         estimate D2E/DX2                !
 ! D96   D(14,28,33,36)       -158.2998         estimate D2E/DX2                !
 ! D97   D(37,28,33,34)         81.7002         estimate D2E/DX2                !
 ! D98   D(37,28,33,35)       -158.2998         estimate D2E/DX2                !
 ! D99   D(37,28,33,36)        -38.2998         estimate D2E/DX2                !
 ! D100  D(14,28,37,38)         15.324          estimate D2E/DX2                !
 ! D101  D(14,28,37,39)        135.324          estimate D2E/DX2                !
 ! D102  D(14,28,37,47)       -104.676          estimate D2E/DX2                !
 ! D103  D(33,28,37,38)       -104.676          estimate D2E/DX2                !
 ! D104  D(33,28,37,39)         15.324          estimate D2E/DX2                !
 ! D105  D(33,28,37,47)        135.324          estimate D2E/DX2                !
 ! D106  D(28,37,47,48)          4.842          estimate D2E/DX2                !
 ! D107  D(28,37,47,49)        124.8421         estimate D2E/DX2                !
 ! D108  D(28,37,47,50)       -115.158          estimate D2E/DX2                !
 ! D109  D(38,37,47,48)       -115.1579         estimate D2E/DX2                !
 ! D110  D(38,37,47,49)          4.8421         estimate D2E/DX2                !
 ! D111  D(38,37,47,50)        124.8421         estimate D2E/DX2                !
 ! D112  D(39,37,47,48)        124.842          estimate D2E/DX2                !
 ! D113  D(39,37,47,49)       -115.1579         estimate D2E/DX2                !
 ! D114  D(39,37,47,50)          4.842          estimate D2E/DX2                !
 ! D115  D(27,40,43,44)        144.905          estimate D2E/DX2                !
 ! D116  D(27,40,43,45)        -95.095          estimate D2E/DX2                !
 ! D117  D(27,40,43,46)         24.905          estimate D2E/DX2                !
 ! D118  D(41,40,43,44)         24.905          estimate D2E/DX2                !
 ! D119  D(41,40,43,45)        144.905          estimate D2E/DX2                !
 ! D120  D(41,40,43,46)        -95.095          estimate D2E/DX2                !
 ! D121  D(42,40,43,44)        -95.095          estimate D2E/DX2                !
 ! D122  D(42,40,43,45)         24.905          estimate D2E/DX2                !
 ! D123  D(42,40,43,46)        144.905          estimate D2E/DX2                !
 --------------------------------------------------------------------------------
 Trust Radius=3.00D-01 FncErr=1.00D-07 GrdErr=1.00D-06 EigMax=2.50D+02 EigMin=1.00D-04
 Number of steps in this run=    274 maximum allowed number of steps=    300.
 GradGradGradGradGradGradGradGradGradGradGradGradGradGradGradGradGradGrad

                          Input orientation:                          
 ---------------------------------------------------------------------
 Center     Atomic      Atomic             Coordinates (Angstroms)
 Number     Number       Type             X           Y           Z
 ---------------------------------------------------------------------
      1          6           0       -3.838007    1.176699    0.034840
      2          6           0       -2.442847    1.176699    0.034840
      3          6           0       -1.745309    2.384450    0.034840
      4          6           0       -2.442963    3.592959    0.033641
      5          6           0       -3.837788    3.592881    0.033162
      6          6           0       -4.535389    2.384675    0.034158
      7          1           0       -4.387766    0.224382    0.035290
      8          1           0       -0.645629    2.384530    0.035474
      9          1           0       -1.892763    4.545102    0.033582
     10          1           0       -4.387910    4.545162    0.032209
     11          1           0       -5.634993    2.384858    0.033978
     12          6           0       -1.673295   -0.157238    0.036682
     13          1           0       -1.509918   -0.473355    1.045779
     14          6           0       -0.317091    0.031556   -0.668064
     15          1           0       -0.465249    0.545169   -1.594968
     16          6           0        0.618960    0.858288    0.233004
     17          6           0        1.389073    1.883977   -0.315958
     18          6           0        0.696803    0.581776    1.597932
     19          6           0        2.237316    2.632492    0.499782
     20          1           0        1.328051    2.101219   -1.392213
     21          6           0        1.544518    1.331073    2.414231
     22          1           0        0.089771   -0.226474    2.030796
     23          6           0        2.314831    2.356220    1.865388
     24          1           0        2.844827    3.440555    0.067046
     25          1           0        1.605381    1.113099    3.490455
     26          1           0        2.983668    2.946570    2.508382
     27          7           0       -2.457733   -1.176459   -0.675178
     28          7           0        0.287508   -1.283003   -0.927477
     29          6           0       -3.104774   -2.066168    0.299838
     30          1           0       -4.092797   -2.303952   -0.035080
     31          1           0       -2.534114   -2.966284    0.394913
     32          1           0       -3.158387   -1.575879    1.249387
     33          6           0        1.700813   -1.108917   -1.292393
     34          1           0        1.806389   -0.237804   -1.904697
     35          1           0        2.286867   -0.993994   -0.404568
     36          1           0        2.037913   -1.968237   -1.833532
     37          6           0       -0.426060   -1.941311   -2.031267
     38          1           0       -1.023076   -1.220693   -2.550094
     39          1           0        0.282568   -2.371089   -2.708051
     40          6           0       -3.485013   -0.519267   -1.495967
     41          1           0       -4.374306   -0.387007   -0.915826
     42          1           0       -3.125669    0.434911   -1.820493
     43          6           0       -3.798478   -1.394437   -2.723736
     44          1           0       -4.837954   -1.312714   -2.963967
     45          1           0       -3.212982   -1.063985   -3.556140
     46          1           0       -3.562294   -2.414684   -2.504161
     47          6           0       -1.334244   -3.049558   -1.466830
     48          1           0       -1.300250   -3.028457   -0.397578
     49          1           0       -2.339832   -2.888237   -1.794960
     50          1           0       -0.993662   -4.001997   -1.815777
 ---------------------------------------------------------------------
                    Distance matrix (angstroms):
                    1          2          3          4          5
     1  C    0.000000
     2  C    1.395160   0.000000
     3  C    2.416205   1.394712   0.000000
     4  C    2.790065   2.416260   1.395427   0.000000
     5  C    2.416183   2.789946   2.416356   1.394825   0.000000
     6  C    1.394829   2.416183   2.790080   2.416236   1.395138
     7  H    1.099610   2.165553   3.412986   3.889675   3.413102
     8  H    3.413229   2.165375   1.099680   2.165806   3.413209
     9  H    3.889745   3.413024   2.165678   1.099680   2.165606
    10  H    3.413055   3.889707   3.413506   2.165528   1.099761
    11  H    2.165365   3.413128   3.889684   3.412999   2.165471
    12  C    2.542709   1.540000   2.542708   3.828364   4.329946
    13  H    3.027321   2.148263   3.040470   4.293007   4.793605
    14  C    3.768591   2.514810   2.840773   4.206580   5.056685
    15  H    3.798764   2.639319   2.770882   3.981551   4.828393
    16  C    4.472718   3.084691   2.821029   4.110176   5.232642
    17  C    5.286366   3.912405   3.193413   4.210385   5.510201
    18  C    4.833394   3.557330   3.414206   4.623025   5.663725
    19  C    6.264587   4.923356   4.017337   4.800500   6.168223
    20  H    5.438692   4.136531   3.400330   4.298708   5.562611
    21  C    5.887012   4.645903   4.194528   5.165592   6.305116
    22  H    4.623870   3.516659   3.764078   4.999144   5.831272
    23  C    6.526837   5.232369   4.453812   5.246087   6.537668
    24  H    7.055945   5.752007   4.710175   5.290092   6.684437
    25  H    6.447929   5.322919   4.978426   5.872678   6.908710
    26  H    7.469010   6.220765   5.366341   5.999207   7.285375
    27  N    2.818977   2.457987   3.700236   4.821824   5.015267
    28  N    4.898578   3.798819   4.302163   5.670470   6.458726
    29  C    3.335272   3.320325   4.661155   5.703908   5.712553
    30  H    3.490664   3.852551   5.243729   6.123743   5.902739
    31  H    4.358221   4.159601   5.420536   6.569816   6.697243
    32  H    3.084427   3.092540   4.376770   5.357868   5.353211
    33  C    6.137109   4.914825   5.083396   6.406003   7.385127
    34  H    6.133664   4.880433   4.822093   6.040603   7.091275
    35  H    6.512993   5.222565   5.278770   6.603292   7.664361
    36  H    6.921552   5.784345   6.062134   7.381835   8.302677
    37  C    5.062822   4.249496   4.972064   6.241786   6.821220
    38  H    4.511454   3.800675   4.494504   5.644734   6.145430
    39  H    6.090106   5.247680   5.852426   7.107409   7.749873
    40  C    2.311769   2.511131   3.715038   4.509542   4.401414
    41  H    1.906976   2.660728   3.936542   4.524566   4.126492
    42  H    2.121306   2.111577   3.024625   3.725207   3.730405
    43  C    3.771213   4.007270   5.109328   5.857872   5.698717
    44  H    4.023669   4.574555   5.676823   6.227942   5.835064
    45  H    4.278605   4.302199   5.190463   5.930142   5.912688
    46  H    4.406878   4.538471   5.725351   6.617032   6.527231
    47  C    5.136642   4.620093   5.652648   6.899544   7.255322
    48  H    4.930571   4.379023   5.448359   6.733118   7.103995
    49  H    4.702808   4.458978   5.612740   6.735007   6.898608
    50  H    6.191444   5.687162   6.691521   7.950105   8.318040
                    6          7          8          9         10
     6  C    0.000000
     7  H    2.165331   0.000000
     8  H    3.889760   4.320860   0.000000
     9  H    3.413344   4.989355   2.494678   0.000000
    10  H    2.165516   4.320781   4.321228   2.495147   0.000000
    11  H    1.099604   2.494641   4.989364   4.320988   2.494420
    12  C    3.827912   2.741166   2.741656   4.707459   5.429707
    13  H    4.283128   3.128887   3.152018   5.133812   5.873302
    14  C    4.881017   4.135491   2.477779   4.831889   6.118381
    15  H    4.754354   4.259905   2.464575   4.548564   5.833946
    16  C    5.379285   5.050568   1.991888   4.465548   6.221102
    17  C    5.955882   6.020756   2.124634   4.239600   6.369981
    18  C    5.750798   5.331269   2.737393   4.986080   6.634322
    19  C    6.793214   7.064451   2.930604   4.575257   6.911624
    20  H    6.041094   6.183110   2.452339   4.287085   6.377621
    21  C    6.613630   6.486611   3.400735   5.273744   7.155285
    22  H    5.674220   4.922769   3.367412   5.539607   6.841965
    23  C    7.090820   7.267655   3.480476   5.084345   7.285517
    24  H    7.455439   7.915503   3.646844   4.864762   7.316684
    25  H    7.160443   6.974653   4.315144   5.997134   7.723862
    26  H    7.935599   8.237993   4.427523   5.697325   7.938960
    27  N    4.183478   2.488403   4.058249   5.792909   6.079714
    28  N    6.134895   5.005729   3.904973   6.296350   7.533129
    29  C    4.682654   2.638688   5.091757   6.726719   6.740011
    30  H    4.709979   2.546455   5.819777   7.194053   6.855799
    31  H    5.724334   3.707519   5.685664   7.547370   7.745316
    32  H    4.365650   2.495264   4.844829   6.367605   6.360848
    33  C    7.270154   6.372693   4.412844   6.829343   8.414019
    34  H    7.131248   6.507282   4.080844   6.349554   8.062116
    35  H    7.625685   6.799165   4.495286   6.952904   8.684796
    36  H    8.102124   7.041976   5.444370   7.833257   9.337910
    37  C    6.314010   4.965481   4.799222   6.963359   7.875819
    38  H    5.658037   4.482588   4.452557   6.377784   7.157897
    39  H    7.304089   6.006198   5.568159   7.751278   8.783901
    40  C    3.446368   1.926844   4.340443   5.524727   5.366468
    41  H    2.934389   1.130752   4.742301   5.602243   5.022474
    42  H    3.037865   2.254140   3.660085   4.674539   4.681871
    43  C    4.736107   3.252701   5.642188   6.820020   6.574306
    44  H    4.769799   3.400129   6.343646   7.209262   6.595023
    45  H    5.150948   3.992290   5.602076   6.789031   6.761600
    46  H    5.515779   3.754315   6.163532   7.593819   7.453474
    47  C    6.483146   4.722186   5.679826   7.761575   8.321765
    48  H    6.320958   4.505673   5.469596   7.608926   8.190119
    49  H    5.997478   4.151174   5.832914   7.667983   7.923925
    50  H    7.533636   5.727885   6.658527   8.790984   9.380293
                   11         12         13         14         15
    11  H    0.000000
    12  C    4.707155   0.000000
    13  H    5.119508   1.070000   0.000000
    14  C    5.857557   1.540000   2.148263   0.000000
    15  H    5.724001   2.148263   3.016998   1.070000   0.000000
    16  C    6.440649   2.514809   2.639318   1.540000   2.148263
    17  C    7.050592   3.697162   3.976870   2.542919   2.620455
    18  C    6.766735   2.932748   2.507548   2.542728   3.397988
    19  C    7.889965   4.825964   4.897567   3.828019   4.006089
    20  H    7.113259   4.018761   4.541619   2.741238   2.382924
    21  C    7.636848   4.268739   3.802395   3.828169   4.553075
    22  H    6.601459   2.662647   1.894786   2.741526   3.748286
    23  C    8.158100   5.056361   4.827729   4.330065   4.794040
    24  H    8.545347   5.775679   5.936364   4.707376   4.701293
    25  H    8.123276   4.928693   4.265954   4.707326   5.520107
    26  H    8.984404   6.118025   5.833302   5.429745   5.873605
    27  N    4.825025   1.470000   2.086720   2.457987   2.789267
    28  N    7.032327   2.457987   2.789267   1.470000   2.086720
    29  C    5.126824   2.400500   2.374246   3.620560   4.168509
    30  H    4.936404   3.235355   3.345236   4.484554   4.869276
    31  H    6.195195   2.959743   2.772597   3.877132   4.535430
    32  H    4.826825   2.385098   1.993605   3.785951   4.454458
    33  C    8.232847   3.749231   4.022410   2.400500   2.742148
    34  H    8.124714   3.985429   4.445074   2.472040   2.422667
    35  H    8.623505   4.071578   4.097579   2.811011   3.370492
    36  H    9.017235   4.533265   4.807517   3.302050   3.555269
    37  C    7.079121   3.002487   3.577409   2.400500   2.524772
    38  H    6.399001   2.871434   3.704840   2.368244   2.083676
    39  H    8.071883   4.032381   4.572269   3.208402   3.209789
    40  C    3.923912   2.400500   3.219252   3.320325   3.203404
    41  H    3.189780   2.873243   3.472761   4.086267   4.075650
    42  H    3.679411   2.430870   3.413373   3.062499   2.672238
    43  C    5.026017   3.696887   4.505013   4.287108   4.018283
    44  H    4.826488   4.511550   5.278107   5.245610   4.944334
    45  H    5.536209   4.012630   4.942361   4.234073   3.739734
    46  H    5.811526   3.888478   4.536858   4.459449   4.379389
    47  C    7.090962   3.277350   3.602900   3.341540   3.700491
    48  H    6.948396   2.927737   2.942071   3.225437   3.860281
    49  H    6.481407   3.355226   3.819713   3.726468   3.916929
    50  H    8.108974   4.321537   4.572345   4.247887   4.583088
                   16         17         18         19         20
    16  C    0.000000
    17  C    1.395160   0.000000
    18  C    1.394829   2.416183   0.000000
    19  C    2.416205   1.394712   2.790080   0.000000
    20  H    2.165414   1.099655   3.412938   2.165330   0.000000
    21  C    2.416183   2.789946   1.395138   2.416356   3.889601
    22  H    2.165365   3.413128   1.099604   3.889684   4.320704
    23  C    2.790065   2.416260   2.416236   1.395427   3.413316
    24  H    3.413229   2.165375   3.889760   1.099680   2.494768
    25  H    3.413055   3.889707   2.165516   3.413506   4.989362
    26  H    3.889745   3.413024   3.413344   2.165678   4.320917
    27  N    3.798819   4.928816   4.267262   6.158906   5.058604
    28  N    2.457987   3.408396   3.165852   4.601078   3.570948
    29  C    4.735304   6.014774   4.811304   7.117254   6.315068
    30  H    5.680869   6.904240   5.825326   8.045178   7.115682
    31  H    4.959378   6.278675   4.947202   7.356889   6.617380
    32  H    4.607228   5.924550   4.431642   6.883742   6.373949
    33  C    2.714246   3.163545   3.495777   4.183045   3.233247
    34  H    2.679770   2.683318   3.764479   3.769060   2.441818
    35  H    2.572812   3.016057   3.003558   3.737874   3.387494
    36  H    3.777994   4.190892   4.480635   5.162443   4.154412
    37  C    3.749232   4.568350   4.560469   5.866809   4.452791
    38  H    3.842405   4.522035   4.838699   5.897367   4.231263
    39  H    4.380849   5.005203   5.237605   6.256761   4.777657
    40  C    4.661500   5.560999   5.317151   6.830932   5.481176
    41  H    5.272881   6.223644   5.742271   7.405057   6.239799
    42  H    4.291659   4.974566   5.130156   6.242967   4.774477
    43  C    5.773286   6.592122   6.541390   7.939649   6.346169
    44  H    6.686686   7.483759   7.418460   8.810315   7.221147
    45  H    5.721584   6.353595   6.675284   7.734351   5.943238
    46  H    5.973884   6.912507   6.629167   8.254279   6.748724
    47  C    4.687825   5.751585   5.167641   6.993518   5.798611
    48  H    4.380386   5.600993   4.583019   6.735426   5.849003
    49  H    5.186861   6.234277   5.724846   7.529580   6.205662
    50  H    5.515471   6.524689   5.960039   7.734176   6.543623
                   21         22         23         24         25
    21  C    0.000000
    22  H    2.165471   0.000000
    23  C    1.394825   3.412999   0.000000
    24  H    3.413209   4.989364   2.165806   0.000000
    25  H    1.099761   2.494420   2.165528   4.321228   0.000000
    26  H    2.165606   4.320988   1.099680   2.494678   2.495147
    27  N    5.643597   3.835954   6.458457   7.069997   6.253276
    28  N    4.424984   3.147496   5.015385   5.462688   5.195788
    29  C    6.134152   4.072567   7.168025   8.110237   6.517156
    30  H    7.140858   5.106626   8.147802   9.007798   7.521626
    31  H    6.259406   4.131276   7.348715   8.371863   6.584767
    32  H    5.650181   3.603057   6.767346   7.912087   5.911554
    33  C    4.440387   3.797071   4.728189   4.884111   5.274665
    34  H    4.602509   4.293601   4.604456   4.300750   5.565339
    35  H    3.728625   3.368578   4.046902   4.494325   4.480566
    36  H    5.401146   4.664979   5.697335   5.789502   6.166568
    37  C    5.861239   4.439268   6.416010   6.638230   6.629146
    38  H    6.143987   4.817827   6.590328   6.598283   6.988820
    39  H    6.444866   5.205115   6.884323   6.931201   7.232626
    40  C    6.633972   5.030195   7.294198   7.628242   7.310344
    41  H    7.005253   5.351293   7.746290   8.229955   7.577749
    42  H    6.367625   5.060525   6.846619   6.945756   7.144854
    43  C    7.897767   6.252055   8.514695   8.677506   8.608460
    44  H    8.755031   7.100003   9.377957   9.529204   9.437197
    45  H    8.000965   6.543964   8.464484   8.373495   8.809700
    46  H    8.018778   6.220263   8.740428   9.052410   8.665191
    47  C    6.522257   4.714977   7.324061   7.870133   7.109415
    48  H    5.916458   3.959831   6.869103   7.697120   6.380593
    49  H    7.113933   5.255888   7.910017   8.390552   7.714337
    50  H    7.264776   5.497684   8.057545   8.583158   7.815071
                   26         27         28         29         30
    26  H    0.000000
    27  N    7.532813   0.000000
    28  N    6.079778   2.758868   0.000000
    29  C    8.189892   1.470000   3.691507   0.000000
    30  H    9.171343   2.086720   4.585387   1.070000   0.000000
    31  H    8.359097   2.086720   3.541708   1.070000   1.747303
    32  H    7.730618   2.086720   4.086404   1.070000   1.747303
    33  C    5.704260   4.204643   1.470000   5.152203   6.047715
    34  H    5.567898   4.536025   2.086720   5.685280   6.524172
    35  H    4.949631   4.755813   2.086720   5.542161   6.523237
    36  H    6.625858   4.709515   2.086720   5.568491   6.397870
    37  C    7.491731   2.559623   1.470000   3.553188   4.190612
    38  H    7.681684   2.361252   2.086720   3.629106   4.113628
    39  H    7.923674   3.615102   2.086720   4.540315   5.127680
    40  C    8.360064   1.470000   3.890808   2.400500   2.385099
    41  H    8.773695   2.086720   4.747153   2.430871   2.128295
    42  H    7.897568   2.086720   3.924090   3.278969   3.409459
    43  C    9.602963   2.457987   4.464778   3.174027   2.853544
    44  H   10.453032   3.304931   5.515300   3.771476   3.180596
    45  H    9.553086   2.980435   4.383066   3.985555   3.835291
    46  H    9.834544   2.469501   4.311335   2.862376   2.527856
    47  C    8.390484   2.323239   2.457987   2.687554   3.196161
    48  H    7.905536   2.201528   2.418342   2.160716   2.907684
    49  H    8.994630   2.048901   3.198784   2.376786   2.551755
    50  H    9.099456   3.380553   3.134231   3.560907   3.957129
                   31         32         33         34         35
    31  H    0.000000
    32  H    1.747303   0.000000
    33  C    4.922541   5.503682   0.000000
    34  H    5.618965   6.032220   1.070000   0.000000
    35  H    5.269816   5.720573   1.070000   1.747303   0.000000
    36  H    5.183194   6.054739   1.070000   1.747303   1.747303
    37  C    3.373545   4.285071   2.400500   2.811011   3.302050
    38  H    3.742110   4.372844   3.002312   3.064063   3.951000
    39  H    4.232769   5.304135   2.368246   2.741955   3.349574
    40  C    3.235356   2.959744   5.223209   5.314622   5.893311
    41  H    3.428850   2.753184   6.129439   6.261080   6.708283
    42  H    4.101961   3.669947   5.094823   4.978436   5.774267
    43  C    3.714201   4.028442   5.689680   5.781276   6.524593
    44  H    4.395912   4.543408   6.752122   6.813573   7.577280
    45  H    4.437389   4.833022   5.410356   5.348264   6.339215
    46  H    3.125067   3.867280   5.556411   5.824167   6.374899
    47  C    2.216462   3.588462   3.606673   4.238074   4.297231
    48  H    1.467762   2.876655   3.673105   4.439634   4.123894
    49  H    2.199859   3.414727   4.443575   4.922193   5.189190
    50  H    2.886667   4.468480   3.987987   4.692264   4.669204
                   36         37         38         39         40
    36  H    0.000000
    37  C    2.472041   0.000000
    38  H    3.231399   1.070000   0.000000
    39  H    2.002077   1.070000   1.747303   0.000000
    40  C    5.719805   3.415545   2.768450   4.369560   0.000000
    41  H    6.667761   4.387336   3.820551   5.369835   1.070000
    42  H    5.695425   3.602603   2.773849   4.503052   1.070000
    43  C    5.931708   3.485941   2.786250   4.196311   1.540000
    44  H    6.998938   4.553007   3.838365   5.235016   2.148263
    45  H    5.599728   3.295736   2.415031   3.827093   2.148263
    46  H    5.657860   3.206817   2.806306   3.850511   2.148263
    47  C    3.560221   1.540000   2.148263   2.148263   3.320998
    48  H    3.785415   2.148263   2.824564   2.876757   3.503667
    49  H    4.473538   2.148263   2.254945   2.824563   2.648180
    50  H    3.650609   2.148263   2.876758   2.254945   4.294009
                   41         42         43         44         45
    41  H    0.000000
    42  H    1.747303   0.000000
    43  C    2.148263   2.148263   0.000000
    44  H    2.294948   2.700675   1.070000   0.000000
    45  H    2.962808   2.294948   1.070000   1.747303   0.000000
    46  H    2.700675   2.962809   1.070000   1.747303   1.747303
    47  C    4.078574   3.933930   3.223614   4.187365   3.440549
    48  H    4.086032   4.165544   3.784465   4.695260   4.182608
    49  H    3.341873   3.414895   2.285107   3.176391   2.681798
    50  H    5.030588   4.922563   3.935829   4.830027   4.072610
                   46         47         48         49         50
    46  H    0.000000
    47  C    2.538371   0.000000
    48  H    3.151389   1.070000   0.000000
    49  H    1.490514   1.070000   1.747303   0.000000
    50  H    3.096983   1.070000   1.747303   1.747303   0.000000
 Stoichiometry    C20H28N2
 Framework group  C1[X(C20H28N2)]
 Deg. of freedom   144
 Full point group                 C1      NOp   1
 Largest Abelian subgroup         C1      NOp   1
 Largest concise Abelian subgroup C1      NOp   1
                         Standard orientation:                         
 ---------------------------------------------------------------------
 Center     Atomic      Atomic             Coordinates (Angstroms)
 Number     Number       Type             X           Y           Z
 ---------------------------------------------------------------------
      1          6           0       -1.726550    2.169268    0.466990
      2          6           0       -0.581210    1.415355    0.209534
      3          6           0        0.527927    2.013596   -0.388083
      4          6           0        0.491603    3.366095   -0.729614
      5          6           0       -0.653668    4.119650   -0.472622
      6          6           0       -1.762701    3.521312    0.126082
      7          1           0       -2.600740    1.697522    0.938573
      8          1           0        1.430959    1.419569   -0.590471
      9          1           0        1.366218    3.837555   -1.200858
     10          1           0       -0.682609    5.185598   -0.741679
     11          1           0       -2.665392    4.115617    0.328764
     12          6           0       -0.541348   -0.077117    0.587074
     13          1           0       -0.185591   -0.181744    1.590762
     14          6           0        0.403017   -0.824388   -0.372802
     15          1           0        0.176975   -0.549063   -1.381762
     16          6           0        1.862002   -0.449355   -0.052937
     17          6           0        2.752879   -0.167299   -1.088917
     18          6           0        2.292805   -0.391540    1.272436
     19          6           0        4.074418    0.171828   -0.799524
     20          1           0        2.413131   -0.213716   -2.133741
     21          6           0        3.614459   -0.051365    1.562128
     22          1           0        1.590742   -0.613640    2.089080
     23          6           0        4.505302    0.230174    0.526429
     24          1           0        4.776838    0.393548   -1.616067
     25          1           0        3.953739   -0.005459    2.607238
     26          1           0        5.547321    0.497643    0.754363
     27          7           0       -1.893488   -0.644706    0.484798
     28          7           0        0.222333   -2.273929   -0.208230
     29          6           0       -2.470060   -0.782606    1.829956
     30          1           0       -3.506960   -0.519986    1.802202
     31          1           0       -2.367316   -1.795249    2.159951
     32          1           0       -1.955586   -0.132958    2.506841
     33          6           0        1.328971   -2.983477   -0.866101
     34          1           0        1.582912   -2.482126   -1.776630
     35          1           0        2.179683   -2.997185   -0.217256
     36          1           0        1.029829   -3.987593   -1.083278
     37          6           0       -1.051926   -2.681191   -0.817575
     38          1           0       -1.408083   -1.899559   -1.455623
     39          1           0       -0.903927   -3.571359   -1.392550
     40          6           0       -2.739382    0.246729   -0.321866
     41          1           0       -3.202534    0.971420    0.314697
     42          1           0       -2.136961    0.746149   -1.051640
     43          6           0       -3.825998   -0.581191   -1.032791
     44          1           0       -4.729234   -0.010371   -1.089602
     45          1           0       -3.497213   -0.827832   -2.020702
     46          1           0       -4.006532   -1.480614   -0.482022
     47          6           0       -2.087272   -2.951632    0.289908
     48          1           0       -1.666350   -2.699821    1.240863
     49          1           0       -2.958868   -2.355664    0.116576
     50          1           0       -2.355963   -3.987315    0.281770
 ---------------------------------------------------------------------
 Rotational constants (GHZ):           0.3618977           0.2797310           0.1839922
 Standard basis: 6-31G (6D, 7F)
 There are   254 symmetry adapted cartesian basis functions of A   symmetry.
 There are   254 symmetry adapted basis functions of A   symmetry.
   254 basis functions,   596 primitive gaussians,   254 cartesian basis functions
    81 alpha electrons       81 beta electrons
       nuclear repulsion energy      1947.1123501510 Hartrees.
 NAtoms=   50 NActive=   50 NUniq=   50 SFac= 1.00D+00 NAtFMM=   60 NAOKFM=F Big=F
 Integral buffers will be    131072 words long.
 Raffenetti 2 integral format.
 Two-electron integral symmetry is turned on.
 ------------------------------------------------------------------------------
 Polarizable Continuum Model (PCM)
 =================================
 Model                : PCM.
 Atomic radii         : SMD-Coulomb.
 Polarization charges : Total charges.
 Charge compensation  : None.
 Solution method      : On-the-fly selection.
 Cavity type          : VdW (van der Waals Surface) (Alpha=1.000).
 Cavity algorithm     : GePol (No added spheres)
                        Default sphere list used, NSphG=   50.
                        Lebedev-Laikov grids with approx.  5.0 points / Ang**2.
                        Smoothing algorithm: York/Karplus (Gamma=1.0000).
                        Polarization charges: spherical gaussians, with
                                              point-specific exponents (IZeta= 3).
                        Self-potential: point-specific (ISelfS= 7).
                        Self-field    : sphere-specific E.n sum rule (ISelfD= 2).
 1st derivatives      : Analytical E(r).r(x)/FMM algorithm (CHGder, D1EAlg=3).
                        Cavity 1st derivative terms included.
 Solvent              : Toluene, Eps=   2.374100 Eps(inf)=   2.238315
 ------------------------------------------------------------------------------
 ------------------------------------------------------------------------------
 Atomic radii for non-electrostatic terms: SMD-CDS.
 ------------------------------------------------------------------------------
 Nuclear repulsion after PCM non-electrostatic terms =     1947.1013756746 Hartrees.
 One-electron integrals computed using PRISM.
 NBasis=   254 RedAO= T EigKep=  5.42D-04  NBF=   254
 NBsUse=   254 1.00D-06 EigRej= -1.00D+00 NBFU=   254
 ExpMin= 1.61D-01 ExpMax= 4.17D+03 ExpMxC= 6.27D+02 IAcc=3 IRadAn=         5 AccDes= 0.00D+00
 Harris functional with IExCor=  402 and IRadAn=       5 diagonalized for initial guess.
 HarFok:  IExCor=  402 AccDes= 0.00D+00 IRadAn=         5 IDoV= 1 UseB2=F ITyADJ=14
 ICtDFT=  3500011 ScaDFX=  1.000000  1.000000  1.000000  1.000000
 FoFCou: FMM=F IPFlag=           0 FMFlag=      100000 FMFlg1=           0
         NFxFlg=           0 DoJE=T BraDBF=F KetDBF=T FulRan=T
         wScrn=  0.000000 ICntrl=       500 IOpCl=  0 I1Cent=   200000004 NGrid=           0
         NMat0=    1 NMatS0=      1 NMatT0=    0 NMatD0=    1 NMtDS0=    0 NMtDT0=    0
 Petite list used in FoFCou.
 Requested convergence on RMS density matrix=1.00D-08 within 128 cycles.
 Requested convergence on MAX density matrix=1.00D-06.
 Requested convergence on             energy=1.00D-06.
 No special actions if energy rises.
 Inv3:  Mode=1 IEnd=    28145907.
 Iteration    1 A*A^-1 deviation from unit magnitude is 4.88D-15 for   3056.
 Iteration    1 A*A^-1 deviation from orthogonality  is 2.29D-15 for   2997   2708.
 Iteration    1 A^-1*A deviation from unit magnitude is 4.66D-15 for   3056.
 Iteration    1 A^-1*A deviation from orthogonality  is 5.71D-15 for   2386   2343.
 Error on total polarization charges =  0.03931
 SCF Done:  E(RB3LYP) =  -888.057226617     A.U. after   12 cycles
            NFock= 12  Conv=0.82D-08     -V/T= 2.0034
 SMD-CDS (non-electrostatic) energy       (kcal/mol) =      -6.89
 (included in total energy above)

 **********************************************************************

            Population analysis using the SCF Density.

 **********************************************************************

 Orbital symmetries:
       Occupied  (A) (A) (A) (A) (A) (A) (A) (A) (A) (A) (A) (A)
                 (A) (A) (A) (A) (A) (A) (A) (A) (A) (A) (A) (A)
                 (A) (A) (A) (A) (A) (A) (A) (A) (A) (A) (A) (A)
                 (A) (A) (A) (A) (A) (A) (A) (A) (A) (A) (A) (A)
                 (A) (A) (A) (A) (A) (A) (A) (A) (A) (A) (A) (A)
                 (A) (A) (A) (A) (A) (A) (A) (A) (A) (A) (A) (A)
                 (A) (A) (A) (A) (A) (A) (A) (A) (A)
       Virtual   (A) (A) (A) (A) (A) (A) (A) (A) (A) (A) (A) (A)
                 (A) (A) (A) (A) (A) (A) (A) (A) (A) (A) (A) (A)
                 (A) (A) (A) (A) (A) (A) (A) (A) (A) (A) (A) (A)
                 (A) (A) (A) (A) (A) (A) (A) (A) (A) (A) (A) (A)
                 (A) (A) (A) (A) (A) (A) (A) (A) (A) (A) (A) (A)
                 (A) (A) (A) (A) (A) (A) (A) (A) (A) (A) (A) (A)
                 (A) (A) (A) (A) (A) (A) (A) (A) (A) (A) (A) (A)
                 (A) (A) (A) (A) (A) (A) (A) (A) (A) (A) (A) (A)
                 (A) (A) (A) (A) (A) (A) (A) (A) (A) (A) (A) (A)
                 (A) (A) (A) (A) (A) (A) (A) (A) (A) (A) (A) (A)
                 (A) (A) (A) (A) (A) (A) (A) (A) (A) (A) (A) (A)
                 (A) (A) (A) (A) (A) (A) (A) (A) (A) (A) (A) (A)
                 (A) (A) (A) (A) (A) (A) (A) (A) (A) (A) (A) (A)
                 (A) (A) (A) (A) (A) (A) (A) (A) (A) (A) (A) (A)
                 (A) (A) (A) (A) (A)
 The electronic state is 1-A.
 Alpha  occ. eigenvalues --  -14.30825 -14.30344 -10.20000 -10.19979 -10.18925
 Alpha  occ. eigenvalues --  -10.18604 -10.18559 -10.18398 -10.18273 -10.18112
 Alpha  occ. eigenvalues --  -10.18060 -10.17729 -10.17725 -10.17687 -10.17663
 Alpha  occ. eigenvalues --  -10.17488 -10.17179 -10.17057 -10.16958 -10.16666
 Alpha  occ. eigenvalues --  -10.14437 -10.12128  -0.94609  -0.91289  -0.86000
 Alpha  occ. eigenvalues --   -0.84937  -0.78802  -0.75948  -0.75062  -0.74562
 Alpha  occ. eigenvalues --   -0.73596  -0.72615  -0.71361  -0.67515  -0.65652
 Alpha  occ. eigenvalues --   -0.63065  -0.61566  -0.60322  -0.59287  -0.58169
 Alpha  occ. eigenvalues --   -0.57654  -0.55434  -0.51811  -0.50849  -0.49112
 Alpha  occ. eigenvalues --   -0.48242  -0.47376  -0.46953  -0.45751  -0.44858
 Alpha  occ. eigenvalues --   -0.43913  -0.43660  -0.43593  -0.42794  -0.42049
 Alpha  occ. eigenvalues --   -0.41828  -0.40870  -0.40482  -0.40136  -0.39311
 Alpha  occ. eigenvalues --   -0.38674  -0.37381  -0.37150  -0.36146  -0.35761
 Alpha  occ. eigenvalues --   -0.34945  -0.34571  -0.34320  -0.33575  -0.33053
 Alpha  occ. eigenvalues --   -0.32192  -0.31716  -0.30878  -0.30406  -0.30203
 Alpha  occ. eigenvalues --   -0.25282  -0.24322  -0.23836  -0.22642  -0.19775
 Alpha  occ. eigenvalues --   -0.18502
 Alpha virt. eigenvalues --   -0.00368  -0.00097   0.00828   0.01474   0.08107
 Alpha virt. eigenvalues --    0.09619   0.10314   0.10838   0.12552   0.13093
 Alpha virt. eigenvalues --    0.13732   0.14020   0.14376   0.14998   0.15498
 Alpha virt. eigenvalues --    0.15833   0.16561   0.16885   0.17227   0.17349
 Alpha virt. eigenvalues --    0.17386   0.18372   0.18639   0.18982   0.19201
 Alpha virt. eigenvalues --    0.20295   0.20532   0.20957   0.21971   0.22359
 Alpha virt. eigenvalues --    0.23351   0.23963   0.24296   0.24930   0.26164
 Alpha virt. eigenvalues --    0.26261   0.27576   0.27716   0.28291   0.29480
 Alpha virt. eigenvalues --    0.30326   0.31091   0.31510   0.32888   0.33895
 Alpha virt. eigenvalues --    0.34788   0.35791   0.36168   0.37014   0.37558
 Alpha virt. eigenvalues --    0.38789   0.39200   0.39703   0.50175   0.52001
 Alpha virt. eigenvalues --    0.52637   0.53350   0.54283   0.54929   0.55544
 Alpha virt. eigenvalues --    0.55688   0.56450   0.57320   0.57998   0.58283
 Alpha virt. eigenvalues --    0.58823   0.59307   0.59736   0.60189   0.60715
 Alpha virt. eigenvalues --    0.61297   0.61898   0.62372   0.62992   0.63962
 Alpha virt. eigenvalues --    0.64048   0.64805   0.65257   0.65619   0.65966
 Alpha virt. eigenvalues --    0.66170   0.66717   0.67363   0.67514   0.68764
 Alpha virt. eigenvalues --    0.69034   0.71185   0.72028   0.73565   0.73609
 Alpha virt. eigenvalues --    0.75044   0.76272   0.77253   0.78601   0.79854
 Alpha virt. eigenvalues --    0.81703   0.82330   0.82956   0.83622   0.84357
 Alpha virt. eigenvalues --    0.84873   0.84964   0.85814   0.86407   0.86474
 Alpha virt. eigenvalues --    0.87466   0.88445   0.88835   0.89804   0.90976
 Alpha virt. eigenvalues --    0.92041   0.92757   0.93443   0.93810   0.94418
 Alpha virt. eigenvalues --    0.95372   0.96153   0.96816   0.98016   0.98072
 Alpha virt. eigenvalues --    0.98428   0.99584   1.00268   1.00731   1.00989
 Alpha virt. eigenvalues --    1.01579   1.03445   1.03868   1.04217   1.04670
 Alpha virt. eigenvalues --    1.05737   1.06930   1.07776   1.08664   1.10351
 Alpha virt. eigenvalues --    1.11004   1.12117   1.14109   1.15933   1.16559
 Alpha virt. eigenvalues --    1.17137   1.18155   1.19700   1.20464   1.21492
 Alpha virt. eigenvalues --    1.22530   1.23113   1.26419   1.27019   1.30777
 Alpha virt. eigenvalues --    1.32707   1.32957   1.36336   1.37603   1.39389
 Alpha virt. eigenvalues --    1.43543   1.44650   1.45895   1.46764   1.48601
 Alpha virt. eigenvalues --    1.52443   1.55804   1.56098   1.64233   1.66869
 Alpha virt. eigenvalues --    1.73203   1.76405   1.83874   1.92672   1.95824
 Alpha virt. eigenvalues --    2.06316   2.13500   2.29413
          Condensed to atoms (all electrons):
               1          2          3          4          5          6
     1  C    5.201630   0.462103  -0.070966  -0.046757  -0.054609   0.511422
     2  C    0.462103   5.143392   0.516629  -0.038377  -0.035247  -0.044871
     3  C   -0.070966   0.516629   5.020298   0.497737  -0.058578  -0.035604
     4  C   -0.046757  -0.038377   0.497737   4.980022   0.535651  -0.048202
     5  C   -0.054609  -0.035247  -0.058578   0.535651   4.922009   0.537762
     6  C    0.511422  -0.044871  -0.035604  -0.048202   0.537762   4.938539
     7  H    0.384545  -0.048908   0.003167   0.000824   0.003710  -0.022721
     8  H    0.005822  -0.047404   0.346150  -0.030047   0.005363   0.000285
     9  H    0.000656   0.004532  -0.029681   0.349654  -0.038123   0.004341
    10  H    0.005453   0.000412   0.004917  -0.035313   0.351496  -0.036661
    11  H   -0.031852   0.003843   0.000831   0.004214  -0.034215   0.350402
    12  C   -0.045370   0.212133  -0.036783   0.007397   0.000492   0.005835
    13  H   -0.003091  -0.033631  -0.001206  -0.000109   0.000020  -0.000071
    14  C    0.006624  -0.054325  -0.003082   0.000017  -0.000044  -0.000117
    15  H    0.000687   0.006735  -0.000118  -0.000251  -0.000004  -0.000042
    16  C   -0.000567  -0.007364  -0.016317   0.000723  -0.000021  -0.000005
    17  C   -0.000044   0.000498  -0.021465   0.000563  -0.000015  -0.000003
    18  C   -0.000054  -0.001596  -0.001451   0.000114  -0.000005   0.000000
    19  C    0.000001   0.000160  -0.000981  -0.000041  -0.000000  -0.000000
    20  H   -0.000002   0.000054   0.000444  -0.000023  -0.000000   0.000000
    21  C    0.000005  -0.000082   0.000642  -0.000025   0.000000   0.000000
    22  H   -0.000033   0.000311  -0.000122  -0.000001   0.000000  -0.000001
    23  C    0.000000   0.000035   0.000454  -0.000031   0.000000  -0.000000
    24  H    0.000000   0.000000  -0.000043   0.000001   0.000000  -0.000000
    25  H   -0.000000  -0.000003  -0.000002  -0.000000   0.000000   0.000000
    26  H    0.000000   0.000000  -0.000003  -0.000000   0.000000  -0.000000
    27  N   -0.012655  -0.055808   0.006618  -0.000179  -0.000026   0.001196
    28  N   -0.000156   0.005282   0.000370  -0.000003   0.000000   0.000000
    29  C    0.003807  -0.006637  -0.000360   0.000004   0.000000   0.000077
    30  H   -0.001623   0.000609   0.000019  -0.000001   0.000000  -0.000050
    31  H    0.000073  -0.000462   0.000022  -0.000000  -0.000000   0.000001
    32  H   -0.000523   0.001320  -0.000334   0.000003   0.000001   0.000015
    33  C    0.000003  -0.000305   0.000025   0.000000  -0.000000   0.000000
    34  H    0.000001   0.000124  -0.000042  -0.000000   0.000000  -0.000000
    35  H   -0.000000  -0.000023   0.000004   0.000000   0.000000   0.000000
    36  H   -0.000000   0.000005   0.000001  -0.000000   0.000000   0.000000
    37  C    0.000016   0.000138   0.000003   0.000000  -0.000000   0.000000
    38  H    0.000013   0.000886  -0.000039  -0.000000   0.000000   0.000000
    39  H   -0.000000   0.000027  -0.000001   0.000000   0.000000  -0.000000
    40  C   -0.092804  -0.017816  -0.000267  -0.000001   0.000068  -0.004381
    41  H   -0.050987  -0.011153  -0.001261  -0.000005  -0.000212   0.003626
    42  H   -0.012128  -0.006540   0.000709   0.000441   0.000512  -0.004584
    43  C    0.008249   0.002033   0.000022  -0.000006  -0.000002   0.000134
    44  H    0.000040   0.000126   0.000003  -0.000000   0.000001  -0.000025
    45  H   -0.000113  -0.000103  -0.000005   0.000000  -0.000001   0.000003
    46  H   -0.000157  -0.000166  -0.000002   0.000000   0.000000  -0.000004
    47  C   -0.000023  -0.000411   0.000009   0.000000  -0.000000   0.000000
    48  H   -0.000015   0.000150   0.000002  -0.000000   0.000000   0.000000
    49  H   -0.000009  -0.000014   0.000001  -0.000000   0.000000   0.000001
    50  H   -0.000000   0.000009  -0.000000   0.000000   0.000000  -0.000000
               7          8          9         10         11         12
     1  C    0.384545   0.005822   0.000656   0.005453  -0.031852  -0.045370
     2  C   -0.048908  -0.047404   0.004532   0.000412   0.003843   0.212133
     3  C    0.003167   0.346150  -0.029681   0.004917   0.000831  -0.036783
     4  C    0.000824  -0.030047   0.349654  -0.035313   0.004214   0.007397
     5  C    0.003710   0.005363  -0.038123   0.351496  -0.034215   0.000492
     6  C   -0.022721   0.000285   0.004341  -0.036661   0.350402   0.005835
     7  H    0.611248  -0.000187   0.000015  -0.000187  -0.003715  -0.002691
     8  H   -0.000187   0.596101  -0.004491  -0.000167   0.000009  -0.012175
     9  H    0.000015  -0.004491   0.585076  -0.004165  -0.000170  -0.000191
    10  H   -0.000187  -0.000167  -0.004165   0.588568  -0.004199   0.000004
    11  H   -0.003715   0.000009  -0.000170  -0.004199   0.584039  -0.000198
    12  C   -0.002691  -0.012175  -0.000191   0.000004  -0.000198   5.420439
    13  H   -0.000042  -0.000093   0.000002  -0.000000   0.000001   0.381922
    14  C    0.000526  -0.007244   0.000033  -0.000000   0.000002   0.196045
    15  H    0.000031   0.000004   0.000006  -0.000000  -0.000000  -0.080595
    16  C   -0.000017   0.003910   0.000061   0.000000   0.000000  -0.004185
    17  C    0.000001   0.001109   0.000130   0.000000  -0.000000   0.004511
    18  C    0.000002  -0.006979  -0.000003   0.000000  -0.000000  -0.014262
    19  C    0.000000   0.000131   0.000060   0.000000  -0.000000  -0.000324
    20  H   -0.000000  -0.001489   0.000010   0.000000   0.000000   0.000153
    21  C    0.000000  -0.000708  -0.000004  -0.000000   0.000000   0.000160
    22  H    0.000001   0.000278  -0.000000  -0.000000   0.000000  -0.004058
    23  C   -0.000000  -0.000167  -0.000003  -0.000000   0.000000  -0.000032
    24  H    0.000000   0.000141  -0.000000   0.000000  -0.000000   0.000001
    25  H   -0.000000   0.000006  -0.000000   0.000000  -0.000000   0.000019
    26  H    0.000000   0.000008  -0.000000   0.000000  -0.000000  -0.000000
    27  N    0.008753   0.000116   0.000001   0.000000  -0.000003   0.191101
    28  N    0.000005   0.000301  -0.000000  -0.000000  -0.000000  -0.059926
    29  C    0.004726  -0.000012   0.000000   0.000000  -0.000005  -0.045580
    30  H    0.001129   0.000000   0.000000   0.000000  -0.000000   0.004918
    31  H    0.000114   0.000000   0.000000  -0.000000   0.000000  -0.000011
    32  H   -0.000207  -0.000004  -0.000000   0.000000   0.000000  -0.006263
    33  C    0.000000   0.000097   0.000000  -0.000000   0.000000   0.008749
    34  H    0.000000   0.000081  -0.000000   0.000000  -0.000000  -0.000861
    35  H   -0.000000   0.000024  -0.000000  -0.000000   0.000000   0.000203
    36  H   -0.000000  -0.000001  -0.000000  -0.000000  -0.000000  -0.000270
    37  C   -0.000004  -0.000022   0.000000  -0.000000   0.000000  -0.011874
    38  H    0.000003  -0.000002  -0.000000   0.000000  -0.000000  -0.006864
    39  H    0.000000   0.000001  -0.000000   0.000000  -0.000000   0.000287
    40  C   -0.065031   0.000013  -0.000002   0.000002   0.000411  -0.070021
    41  H   -0.051102  -0.000002  -0.000000   0.000010   0.000248   0.006456
    42  H   -0.004274  -0.000166   0.000001   0.000005  -0.000136  -0.013197
    43  C    0.005003   0.000001   0.000000  -0.000000  -0.000004   0.008433
    44  H    0.000100  -0.000000  -0.000000  -0.000000  -0.000001  -0.000309
    45  H   -0.000130   0.000001  -0.000000   0.000000   0.000001  -0.000127
    46  H   -0.000125  -0.000000   0.000000   0.000000  -0.000000   0.000245
    47  C    0.000007  -0.000000  -0.000000   0.000000   0.000000  -0.000081
    48  H    0.000025   0.000001  -0.000000   0.000000  -0.000000  -0.001859
    49  H    0.000047   0.000000   0.000000   0.000000  -0.000000   0.002572
    50  H   -0.000001  -0.000000  -0.000000   0.000000   0.000000  -0.000094
              13         14         15         16         17         18
     1  C   -0.003091   0.006624   0.000687  -0.000567  -0.000044  -0.000054
     2  C   -0.033631  -0.054325   0.006735  -0.007364   0.000498  -0.001596
     3  C   -0.001206  -0.003082  -0.000118  -0.016317  -0.021465  -0.001451
     4  C   -0.000109   0.000017  -0.000251   0.000723   0.000563   0.000114
     5  C    0.000020  -0.000044  -0.000004  -0.000021  -0.000015  -0.000005
     6  C   -0.000071  -0.000117  -0.000042  -0.000005  -0.000003   0.000000
     7  H   -0.000042   0.000526   0.000031  -0.000017   0.000001   0.000002
     8  H   -0.000093  -0.007244   0.000004   0.003910   0.001109  -0.006979
     9  H    0.000002   0.000033   0.000006   0.000061   0.000130  -0.000003
    10  H   -0.000000  -0.000000  -0.000000   0.000000   0.000000   0.000000
    11  H    0.000001   0.000002  -0.000000   0.000000  -0.000000  -0.000000
    12  C    0.381922   0.196045  -0.080595  -0.004185   0.004511  -0.014262
    13  H    0.574573  -0.048180   0.006277  -0.012012   0.000234   0.006126
    14  C   -0.048180   5.374577   0.373897   0.191556  -0.036754  -0.036766
    15  H    0.006277   0.373897   0.695954  -0.060699  -0.009086   0.008485
    16  C   -0.012012   0.191556  -0.060699   5.113236   0.509442   0.508922
    17  C    0.000234  -0.036754  -0.009086   0.509442   5.046392  -0.080343
    18  C    0.006126  -0.036766   0.008485   0.508922  -0.080343   5.002318
    19  C    0.000006   0.006105   0.000580  -0.042563   0.504533  -0.036338
    20  H    0.000006  -0.007462   0.005735  -0.038749   0.354925   0.005171
    21  C    0.000235   0.006271  -0.000131  -0.041693  -0.036726   0.504367
    22  H    0.009186  -0.007074   0.000193  -0.040202   0.004452   0.353056
    23  C   -0.000008   0.000508  -0.000023  -0.032709  -0.059245  -0.058918
    24  H    0.000000  -0.000167  -0.000000   0.004084  -0.031640   0.000671
    25  H    0.000016  -0.000189   0.000002   0.003999   0.000799  -0.030861
    26  H   -0.000000   0.000003  -0.000000   0.000345   0.004803   0.004800
    27  N   -0.045014  -0.080804  -0.003167   0.007082  -0.000115   0.000197
    28  N    0.001477   0.258805  -0.078114  -0.067685  -0.000452   0.003311
    29  C   -0.009163   0.006960  -0.000241  -0.000145   0.000003  -0.000039
    30  H    0.000716  -0.000397   0.000015   0.000004  -0.000000   0.000000
    31  H   -0.000299   0.000761  -0.000024  -0.000044   0.000000   0.000003
    32  H    0.005276  -0.000638  -0.000012   0.000103   0.000000  -0.000068
    33  C    0.000022  -0.052783  -0.006397  -0.013629   0.000322  -0.005390
    34  H    0.000036  -0.008657   0.016212  -0.008379  -0.001166   0.001586
    35  H   -0.000030  -0.007986  -0.001010   0.010192  -0.000902   0.000516
    36  H   -0.000000   0.006157  -0.000164   0.001044   0.000213   0.000087
    37  C   -0.000567  -0.044672  -0.008885   0.010029  -0.000057   0.000076
    38  H    0.000121  -0.007989   0.017133   0.000488  -0.000056   0.000042
    39  H    0.000033   0.004342   0.001599  -0.000453  -0.000017   0.000011
    40  C    0.005383   0.002403   0.001101  -0.000180   0.000002  -0.000006
    41  H   -0.000113  -0.001030   0.000048   0.000040  -0.000000   0.000000
    42  H    0.000627   0.000616   0.002349  -0.000116   0.000006   0.000000
    43  C   -0.000314   0.000109  -0.000406  -0.000009   0.000000   0.000000
    44  H    0.000008  -0.000003   0.000007   0.000000  -0.000000  -0.000000
    45  H    0.000005  -0.000052   0.000165   0.000000  -0.000000   0.000000
    46  H   -0.000017   0.000034  -0.000012  -0.000000   0.000000  -0.000000
    47  C   -0.000385   0.000642  -0.002115  -0.000187   0.000003  -0.000057
    48  H    0.000377   0.001522   0.000491  -0.000365  -0.000001   0.000067
    49  H   -0.000005  -0.000236   0.000410  -0.000025  -0.000000   0.000004
    50  H    0.000020  -0.000178   0.000022   0.000025  -0.000000  -0.000000
              19         20         21         22         23         24
     1  C    0.000001  -0.000002   0.000005  -0.000033   0.000000   0.000000
     2  C    0.000160   0.000054  -0.000082   0.000311   0.000035   0.000000
     3  C   -0.000981   0.000444   0.000642  -0.000122   0.000454  -0.000043
     4  C   -0.000041  -0.000023  -0.000025  -0.000001  -0.000031   0.000001
     5  C   -0.000000  -0.000000   0.000000   0.000000   0.000000   0.000000
     6  C   -0.000000   0.000000   0.000000  -0.000001  -0.000000  -0.000000
     7  H    0.000000  -0.000000   0.000000   0.000001  -0.000000   0.000000
     8  H    0.000131  -0.001489  -0.000708   0.000278  -0.000167   0.000141
     9  H    0.000060   0.000010  -0.000004  -0.000000  -0.000003  -0.000000
    10  H    0.000000   0.000000  -0.000000  -0.000000  -0.000000   0.000000
    11  H   -0.000000   0.000000   0.000000   0.000000   0.000000  -0.000000
    12  C   -0.000324   0.000153   0.000160  -0.004058  -0.000032   0.000001
    13  H    0.000006   0.000006   0.000235   0.009186  -0.000008   0.000000
    14  C    0.006105  -0.007462   0.006271  -0.007074   0.000508  -0.000167
    15  H    0.000580   0.005735  -0.000131   0.000193  -0.000023  -0.000000
    16  C   -0.042563  -0.038749  -0.041693  -0.040202  -0.032709   0.004084
    17  C    0.504533   0.354925  -0.036726   0.004452  -0.059245  -0.031640
    18  C   -0.036338   0.005171   0.504367   0.353056  -0.058918   0.000671
    19  C    4.929783  -0.033180  -0.048364   0.000365   0.537032   0.352198
    20  H   -0.033180   0.564908   0.000260  -0.000150   0.004272  -0.003879
    21  C   -0.048364   0.000260   4.936523  -0.029102   0.537054   0.004343
    22  H    0.000365  -0.000150  -0.029102   0.554583   0.004147   0.000011
    23  C    0.537032   0.004272   0.537054   0.004147   4.915804  -0.034639
    24  H    0.352198  -0.003879   0.004343   0.000011  -0.034639   0.572994
    25  H    0.004208   0.000012   0.352061  -0.003709  -0.034669  -0.000160
    26  H   -0.035286  -0.000150  -0.034708  -0.000150   0.355650  -0.004331
    27  N    0.000001  -0.000001  -0.000006  -0.000089   0.000000  -0.000000
    28  N   -0.000133  -0.000005   0.000131   0.001966   0.000013   0.000001
    29  C   -0.000000   0.000000  -0.000000   0.000038  -0.000000   0.000000
    30  H    0.000000   0.000000   0.000000  -0.000001   0.000000  -0.000000
    31  H    0.000000  -0.000000   0.000000  -0.000021  -0.000000   0.000000
    32  H   -0.000000   0.000000  -0.000001   0.000095   0.000000  -0.000000
    33  C   -0.000040  -0.001443  -0.000170  -0.000039   0.000004  -0.000005
    34  H    0.000230   0.003298  -0.000018   0.000030  -0.000009  -0.000004
    35  H   -0.000187  -0.000049   0.000309  -0.000048   0.000114  -0.000003
[...]
 09,0.00002726,-0.00011591,0.00033478,-0.00035780,-0.00000425,-0.000214
 46,-0.00219399,-0.15831588,-0.04735014,-0.00008877,-0.02467011,-0.0199
 4374,0.00170311,-0.00650776,-0.00376845,-0.00001557,-0.00000925,0.0000
 6872,-0.00000383,-0.00000042,-0.00001092,0.00002134,0.00005622,0.00002
 008,0.00000584,0.00000916,-0.00000881,-0.00002302,-0.00001313,-0.00001
 163,-0.00001930,-0.00003382,0.00001572,0.00000753,-0.00000020,-0.00001
 108,0.00343409,0.51673872,0.00002923,-0.00007634,0.00003818,0.00024908
 ,0.00013985,-0.00012832,0.00000208,-0.00003568,-0.00003028,-0.00001606
 ,-0.00001332,-0.00000367,0.00000747,-0.00001178,0.00000120,-0.00001892
 ,-0.00001061,-0.00001183,0.00000627,0.00001207,0.00000042,0.00001874,0
 .00001726,-0.00000603,0.00000650,-0.00001108,0.00000455,0.00000663,-0.
 00000406,-0.00000041,0.00000466,-0.00001115,-0.00000738,-0.00011086,-0
 .00079605,0.00028522,-0.00008345,-0.00001850,0.00002782,-0.00020819,0.
 00178524,-0.00331621,-0.00000790,-0.00027652,0.00069728,0.00044215,-0.
 00030406,0.00023134,-0.00016463,0.00012592,-0.00025884,-0.00013067,0.0
 0000296,-0.00011132,-0.00004699,-0.00001802,0.00005816,0.00006208,-0.0
 0011507,0.00012002,0.00005747,0.00004003,0.00007083,0.00002074,-0.0000
 2114,0.00002444,-0.00002898,-0.00006561,0.00000119,-0.00001852,-0.0000
 1478,-0.00000513,-0.00000927,0.00000114,-0.00001017,-0.00000075,-0.000
 00727,0.00000639,0.00003586,0.00001518,-0.00001112,0.01047493,-0.02250
 511,-0.01945904,-0.00003882,-0.00000775,0.00005404,0.00001035,0.000002
 23,0.00000628,-0.00000552,-0.00000705,-0.00001769,0.00002298,-0.000009
 89,-0.00001463,0.00038672,-0.00058074,-0.00070323,-0.00027506,0.000063
 82,-0.00022934,-0.00017099,-0.00030126,0.00033526,0.00078748,-0.000323
 82,-0.00126505,-0.00402825,-0.04625643,-0.11224518,0.00000587,0.013667
 42,0.00993374,-0.00054397,-0.01625702,-0.00922198,-0.00004780,0.000091
 61,0.00002758,0.00003211,-0.00003799,-0.00002176,-0.00001731,0.0001124
 5,-0.00002705,-0.00006459,0.00016818,-0.00009299,-0.00001627,-0.000000
 11,0.00000954,-0.00004913,-0.00019574,0.00011712,0.00008026,-0.0000519
 2,-0.00001449,0.00215248,-0.05015279,0.53329885,0.00000997,-0.00001835
 ,0.00000359,0.00004657,0.00004871,-0.00001781,0.00001539,-0.00000800,-
 0.00001505,-0.00000025,0.00000050,0.00000104,0.00000294,-0.00000287,0.
 00000036,-0.00000441,-0.00000295,-0.00000074,-0.00000167,0.00000060,0.
 00000393,-0.00000790,-0.00000193,-0.00000245,0.00000025,-0.00000598,0.
 00000146,0.00000015,-0.00000199,-0.00000013,-0.00000035,-0.00000263,-0
 .00000124,-0.00008906,-0.00011439,-0.00004067,0.00001129,0.00000698,0.
 00000974,0.00015489,0.00046969,-0.00007933,-0.00002343,-0.00003835,0.0
 0003060,-0.00000527,-0.00001801,0.00005456,-0.00002038,0.00001497,-0.0
 0002208,-0.00000891,-0.00000423,0.00001106,0.00000842,-0.00000267,-0.0
 0000851,-0.00001030,0.00001744,0.00000055,0.00001344,-0.00000293,0.000
 00200,-0.00000516,0.00000794,0.00000767,0.00001106,-0.00000373,0.00000
 593,-0.00000818,0.00000145,0.00000258,-0.00000427,0.00000261,-0.000002
 41,-0.00000690,0.00000047,-0.00000070,0.00003132,0.00000245,0.00003552
 ,0.00174022,0.00042461,-0.00002771,0.00000755,-0.00000480,0.00002374,0
 .00001361,0.00000927,-0.00000818,-0.00000339,-0.00000273,0.00001393,0.
 00000654,-0.00000202,-0.00000531,0.00014161,-0.00029639,-0.00007520,-0
 .00004754,0.00006490,0.00002314,0.00002127,-0.00001957,-0.00009927,-0.
 00017837,0.00000998,-0.00005103,-0.00017455,0.00161739,0.00207649,0.00
 039514,-0.00066546,0.00012467,0.00118872,-0.00014351,0.00060068,-0.000
 00906,0.00001212,-0.00008840,0.00000224,0.00000350,0.00002363,-0.00004
 061,-0.00002451,0.00000188,-0.00003044,0.00000954,0.00003955,-0.000000
 22,0.00000983,0.00001085,-0.00045152,-0.00005523,0.00017184,-0.0000271
 8,0.00000357,0.00000425,-0.26221682,-0.03689500,-0.09737300,0.28600330
 ,0.00000170,0.00000305,-0.00000248,0.00000044,-0.00000187,0.00000482,0
 .00000738,-0.00000332,-0.00002494,0.00000136,-0.00000072,0.00000818,-0
 .00000026,0.00000159,0.00000255,-0.00000020,0.00000299,0.00000260,-0.0
 0000169,-0.00000300,0.00000401,-0.00000173,-0.00000568,0.00000490,0.00
 000064,-0.00000329,-0.00000133,-0.00000172,0.00000192,0.00000131,-0.00
 000149,0.00000155,0.00000309,0.00001299,-0.00001033,-0.00000288,-0.000
 00927,0.00000689,0.00002277,-0.00005568,-0.00002572,0.00020193,-0.0000
 3091,-0.00005315,-0.00001071,-0.00008707,-0.00000182,-0.00003943,0.000
 07628,-0.00000481,-0.00008203,0.00008848,-0.00004234,0.00008897,0.0000
 6118,0.00000579,0.00000925,-0.00003288,0.00002584,-0.00000248,-0.00001
 284,-0.00003331,0.00000420,-0.00001210,0.00001277,0.00000060,0.0000143
 1,0.00002824,-0.00001400,-0.00000433,0.00000443,0.00000365,-0.00000214
 ,0.00000265,-0.00000161,-0.00000629,0.00000136,-0.00000076,-0.00002409
 ,-0.00002365,0.00005533,0.00025073,0.00198124,0.00239435,0.00003377,0.
 00002675,0.00001311,-0.00000427,0.00000151,-0.00000674,-0.00000571,0.0
 0000061,0.00001765,-0.00000981,-0.00000001,0.00000334,0.00000203,0.000
 07349,-0.00012162,0.00002621,-0.00015289,0.00013269,-0.00000076,0.0000
 5279,-0.00002401,0.00008211,-0.00005302,-0.00001151,-0.02805546,-0.006
 59512,-0.01399535,-0.00021089,0.00103917,0.00077099,0.00058204,-0.0040
 9098,-0.00373994,0.00019539,0.00001803,-0.00013009,-0.00004008,-0.0000
 2048,0.00002608,0.00002051,-0.00012971,-0.00001383,-0.00005778,0.00004
 977,-0.00001567,0.00004765,0.00001412,0.00002328,-0.00002906,0.0000390
 1,0.00001364,-0.00002775,-0.00002273,0.00002264,-0.03461903,-0.0560860
 1,-0.01467253,0.04069168,0.06074305,-0.00000344,0.00001761,-0.00000578
 ,0.00001103,-0.00001800,0.00000610,0.00000021,0.00001661,-0.00000057,0
 .00000339,-0.00000393,0.00000388,-0.00000165,0.00000653,0.00000228,0.0
 0000026,0.00000082,0.00000059,-0.00000222,-0.00000465,-0.00000069,-0.0
 0000389,-0.00001107,0.00000787,-0.00000355,0.00000287,-0.00000242,-0.0
 0000249,0.00000253,0.00000095,-0.00000222,0.00000262,0.00000313,-0.000
 03391,-0.00003153,-0.00004417,0.00000238,0.00000479,0.00001268,0.00007
 116,-0.00026768,0.00008039,-0.00003286,0.00004064,-0.00004589,-0.00010
 746,0.00008931,-0.00003431,0.00009426,-0.00001499,-0.00001751,0.000084
 95,-0.00003826,0.00007528,0.00004727,0.00000743,-0.00000612,-0.0000304
 3,0.00002929,-0.00000811,-0.00001048,-0.00002886,-0.00000716,-0.000013
 06,0.00001425,-0.00000768,0.00002144,0.00002789,-0.00000566,0.00000111
 ,0.00000944,0.00000425,-0.00000223,0.00000405,0.00000326,-0.00000375,0
 .00000370,-0.00000030,-0.00003858,0.00010194,0.00005335,-0.00015482,0.
 00148349,0.00202393,0.00004783,0.00000050,-0.00001615,0.00001144,0.000
 00528,-0.00000821,-0.00000033,-0.00000180,0.00001557,-0.00002508,0.000
 01365,0.00000824,-0.00008807,0.00024777,-0.00051624,0.00012768,-0.0000
 2122,0.00024360,0.00003415,-0.00000091,-0.00003024,-0.00024200,0.00003
 278,-0.00016555,-0.01979824,-0.00481624,-0.00995196,0.00071113,0.00042
 630,0.00073474,0.00048185,-0.00375702,-0.00148761,0.00009683,-0.000082
 34,-0.00009092,-0.00004075,0.00004983,0.00004183,0.00004688,-0.0001315
 2,0.00001391,0.00014517,-0.00020426,0.00012303,-0.00000181,0.00001549,
 -0.00001931,0.00027407,0.00022998,-0.00018998,-0.00008388,0.00005064,0
 .00000212,-0.09586010,-0.01453463,-0.09316556,0.10737898,0.02021832,0.
 09858567,-0.00000967,0.00001867,-0.00000761,-0.00000087,-0.00003879,-0
 .00000042,-0.00001200,0.00001590,0.00000733,0.00000275,-0.00000371,0.0
 0000600,-0.00000230,0.00000655,0.00000051,0.00000100,0.00000092,-0.000
 00143,0.00000140,-0.00000298,-0.00000431,0.00000188,-0.00000897,0.0000
 1154,-0.00000363,0.00000650,-0.00000368,-0.00000255,0.00000430,0.00000
 130,-0.00000108,0.00000340,0.00000361,0.00008748,-0.00004534,-0.000021
 57,-0.00000753,0.00000136,0.00000509,0.00056350,-0.00030368,0.00032571
 ,-0.00000371,0.00001753,-0.00003736,-0.00018237,0.00022307,0.00003343,
 0.00005640,-0.00000672,0.00007252,0.00003478,0.00001395,-0.00000017,0.
 00000281,-0.00002015,-0.00002107,-0.00001812,0.00000208,-0.00000707,0.
 00000485,-0.00000927,-0.00001995,-0.00001048,0.00000070,-0.00000624,0.
 00001682,0.00001191,0.00001576,0.00001173,0.00001599,0.00000080,0.0000
 0490,0.00000009,0.00000899,0.00000510,0.00000580,0.00000495,-0.0000848
 5,0.00006345,0.00002821,0.00030371,0.00097274,0.00084996,0.00003851,0.
 00000393,-0.00002931,-0.00000059,-0.00000176,-0.00000263,0.00000214,-0
 .00000003,0.00000539,-0.00002547,0.00001294,0.00000970,0.00007761,0.00
 034737,-0.00047465,0.00007265,-0.00008630,0.00009404,-0.00001065,-0.00
 001491,0.00005510,-0.00006649,-0.00006589,-0.00022560,-0.00123492,-0.0
 0184784,-0.00141772,0.00000890,0.00036104,-0.00017207,0.00025400,0.000
 39450,0.00020239,0.00007383,-0.00005328,-0.00002061,-0.00004228,0.0000
 2837,0.00002169,0.00001967,-0.00006067,0.00002826,0.00004958,-0.000076
 94,0.00005564,0.00000056,0.00000433,-0.00001440,0.00000426,0.00008424,
 -0.00003616,-0.00005082,0.00002162,0.00000637,-0.16457017,-0.02582345,
 0.12631781,-0.01883743,-0.00466066,0.02344504,0.17722703,0.00001671,-0
 .00004770,0.00001384,0.00012488,0.00009550,-0.00007924,0.00000976,-0.0
 0001493,-0.00001170,-0.00000872,-0.00000421,-0.00000434,0.00000490,-0.
 00000846,-0.00000047,-0.00001307,-0.00000903,-0.00000689,0.00000365,0.
 00000537,0.00000119,0.00000216,0.00000656,-0.00000534,0.00000372,-0.00
 000692,0.00000301,0.00000372,-0.00000245,-0.00000058,0.00000281,-0.000
 00595,-0.00000383,-0.00008039,-0.00043335,0.00001022,-0.00000545,0.000
 00697,-0.00001593,0.00045342,0.00046814,-0.00138785,-0.00000843,0.0000
 0278,0.00012235,0.00026539,-0.00006512,0.00007357,-0.00009543,0.000021
 46,-0.00003828,-0.00008016,-0.00000176,-0.00003310,-0.00002670,0.00001
 130,0.00001303,0.00003408,-0.00002241,0.00001082,0.00000930,0.00002681
 ,0.00001406,0.00001930,-0.00000327,-0.00000155,-0.00002553,-0.00003003
 ,-0.00000747,-0.00001014,-0.00001631,-0.00000362,-0.00000484,-0.000002
 45,-0.00000783,-0.00000008,-0.00000442,-0.00000265,-0.00000220,0.00005
 572,0.00002444,0.00072270,-0.00533513,-0.00320354,0.00000447,-0.000008
 30,0.00003152,0.00001748,0.00000810,-0.00000395,-0.00000186,-0.0000054
 6,0.00000103,0.00000606,-0.00000070,-0.00000688,-0.00022815,-0.0009545
 1,0.00026967,-0.00003567,0.00019030,-0.00011635,0.00000544,0.00022021,
 -0.00000513,0.00001936,0.00053665,0.00015145,0.02019917,0.00366017,-0.
 02114214,0.00049069,0.00114813,0.00060464,-0.00056919,0.00088899,0.000
 64545,-0.00002176,-0.00000435,-0.00004731,0.00001225,0.00001118,0.0000
 0944,-0.00001110,-0.00000438,-0.00002776,0.00003377,-0.00003951,0.0000
 2182,0.00000582,0.00001031,0.00000620,0.00000626,0.00002066,-0.0000175
 8,-0.00001325,0.00001153,0.00000270,-0.02755777,-0.05413777,0.02904807
 ,-0.00276748,-0.00133399,0.00400602,0.02848856,0.05925103,0.00002231,-
 0.00005348,0.00001686,0.00010818,0.00010686,-0.00005910,0.00001881,-0.
 00002337,-0.00001035,-0.00000804,-0.00000092,-0.00000667,0.00000523,-0
 .00001144,-0.00000241,-0.00001156,-0.00000930,-0.00000481,0.00000154,0
 .00000901,0.00000349,-0.00000321,0.00000878,-0.00001270,0.00000434,-0.
 00000895,0.00000582,0.00000564,-0.00000655,-0.00000156,0.00000373,-0.0
 0000826,-0.00000782,-0.00012807,-0.00033237,0.00001435,-0.00000141,0.0
 0001396,0.00000221,0.00025698,0.00072054,-0.00086898,-0.00001963,-0.00
 003543,0.00006012,0.00023981,-0.00007036,0.00004120,-0.00008406,0.0000
 2388,-0.00003832,-0.00006602,-0.00001354,-0.00003624,-0.00003291,0.000
 01523,0.00000605,0.00003181,-0.00000694,0.00000458,0.00000594,0.000018
 05,0.00001921,0.00000811,-0.00000532,0.00002541,-0.00003527,-0.0000273
 5,-0.00000708,-0.00001220,-0.00002697,-0.00000122,-0.00000454,-0.00000
 260,-0.00001555,-0.00000649,-0.00001214,-0.00000936,0.00008781,-0.0000
 3930,0.00001084,-0.00015822,-0.00387754,-0.00125518,-0.00003380,-0.000
 00540,0.00005341,0.00001468,0.00001139,-0.00000392,-0.00000646,-0.0000
 0069,0.00000417,0.00002711,-0.00001343,-0.00001148,0.00034569,-0.00023
 896,0.00046268,-0.00008189,0.00006543,-0.00011416,0.00002133,-0.000130
 97,-0.00011445,-0.00021477,-0.00028283,0.00011655,0.01409875,0.0057978
 3,-0.01351088,0.00008426,0.00003359,0.00116338,-0.00085852,0.00027680,
 0.00005168,-0.00005065,0.00001324,-0.00006034,0.00002979,-0.00000601,0
 .00001222,-0.00001818,0.00001000,-0.00003151,0.00000524,-0.00001445,0.
 00001981,0.00001289,0.00000032,0.00001662,-0.00000230,0.00000239,-0.00
 003202,-0.00000242,0.00001184,-0.00000106,0.12548115,0.02745687,-0.187
 91710,-0.01026283,-0.00230057,0.01092551,-0.14128422,-0.02946099,0.204
 15105,0.00000153,-0.00000586,0.00000089,-0.00000138,0.00000970,0.00001
 143,0.00000790,-0.00001164,-0.00001517,-0.00000039,0.00000092,0.000003
 63,0.00000050,-0.00000292,-0.00000048,-0.00000041,-0.00000011,0.000001
 86,0.00000022,0.00000198,0.00000323,-0.00000099,0.00000049,-0.00000120
 ,0.00000218,-0.00000376,0.00000102,0.00000077,-0.00000091,0.00000016,0
 .00000063,-0.00000063,-0.00000057,-0.00001452,0.00005400,0.00000741,-0
 .00000089,0.00000634,0.00002242,-0.00018086,0.00009747,0.00005470,-0.0
 0002403,-0.00007794,0.00003765,0.00004812,-0.00004171,0.00000179,-0.00
 002565,-0.00000222,-0.00001892,0.00000656,0.00001146,-0.00002051,-0.00
 000366,-0.00000160,0.00001086,0.00000072,-0.00000056,0.00000511,-0.000
 00967,-0.00000859,0.00000832,-0.00000486,-0.00000812,0.00001966,-0.000
 01256,0.00000074,-0.00000959,-0.00000037,-0.00000788,-0.00000097,0.000
 00142,-0.00000055,-0.00000306,-0.00000141,-0.00000407,-0.00000173,0.00
 003612,-0.00009126,0.00002824,0.00019221,0.00019654,-0.00004834,-0.000
 00974,0.00001767,0.00002048,-0.00000762,0.00000223,-0.00000450,-0.0000
 0483,0.00000523,0.00001224,0.00000966,-0.00001042,-0.00000172,0.000172
 56,0.00079596,0.00050421,-0.00009275,-0.00014161,-0.00009942,-0.000027
 04,-0.00020534,-0.00012801,-0.00021912,-0.00045966,0.00096358,-0.00013
 919,-0.00041218,-0.00031753,0.00115304,-0.00036056,-0.00007690,0.00018
 237,-0.00030988,0.00070104,0.00005245,0.00003376,-0.00007602,-0.000003
 28,-0.00002286,0.00001547,-0.00001250,-0.00004649,-0.00001214,-0.00005
 958,0.00003795,-0.00000202,0.00004582,-0.00000895,0.00002551,0.0000037
 5,0.00001372,-0.00003796,-0.00001149,-0.00000715,0.00001509,-0.0704559
 6,0.05876771,-0.03774405,-0.00761235,0.02580908,-0.01655122,0.00625012
 ,-0.01939844,0.01246654,0.07076846,0.00000697,-0.00001867,0.00000430,0
 .00001795,0.00003301,-0.00003573,0.00000292,0.00001114,0.00002719,0.00
 000146,0.00000390,-0.00001179,0.00000129,-0.00000171,-0.00000115,-0.00
 000329,-0.00000225,-0.00000335,-0.00000081,0.00000192,-0.00000236,-0.0
 0001044,-0.00000188,-0.00001471,-0.00000323,0.00000154,0.00000178,0.00
 000138,-0.00000390,-0.00000149,0.00000146,-0.00000361,-0.00000490,-0.0
 0010253,-0.00005779,-0.00005042,0.00004179,0.00000785,-0.00006533,0.00
 027771,-0.00007264,-0.00002996,-0.00006604,0.00022236,-0.00019487,0.00
 005836,0.00003650,0.00001086,0.00001377,-0.00008399,0.00004706,-0.0000
 4301,-0.00001528,0.00006127,0.00003823,0.00002790,-0.00001133,-0.00002
 915,0.00007575,-0.00004528,-0.00002926,-0.00000013,-0.00002535,0.00002
 624,0.00001036,-0.00003302,-0.00001316,0.00001328,-0.00002445,-0.00000
 088,-0.00000120,0.00000388,-0.00000432,-0.00000584,-0.00002117,-0.0000
 0718,-0.00000424,-0.00001103,0.00000891,0.00007991,-0.00004903,-0.0003
 9596,0.00065408,0.00031252,0.00000246,-0.00001972,0.00002028,0.0000143
 0,0.00000433,0.00000361,0.00000227,-0.00000723,-0.00001185,0.00000645,
 0.00000219,-0.00000668,-0.00030258,-0.00075097,0.00043354,-0.00008504,
 0.00003624,-0.00021852,-0.00006301,0.00048744,0.00003685,0.00013372,0.
 00098374,0.00028089,0.00735299,-0.02354835,0.01596979,-0.00007578,-0.0
 0320567,-0.00400660,-0.00034054,0.00128519,0.00010283,-0.00005946,-0.0
 0001068,0.00004148,0.00000854,0.00000947,-0.00001042,0.00000070,0.0000
 1121,-0.00001449,0.00002609,-0.00001470,-0.00000748,-0.00001214,0.0000
 0334,-0.00000386,-0.00001057,-0.00000202,0.00001370,0.00001161,0.00001
 092,-0.00000425,0.05813491,-0.22297353,0.10787777,-0.00232452,0.004559
 36,-0.00319351,0.00199954,-0.00415498,0.00243044,-0.06420909,0.2463880
 3,-0.00000490,0.00000749,-0.00000591,-0.00002859,-0.00001200,0.0000138
 0,-0.00000305,0.00000389,-0.00000126,0.00000154,-0.00000054,0.00000127
 ,-0.00000094,0.00000113,0.00000264,0.00000096,0.00000291,0.00000090,0.
 00000060,-0.00000246,0.00000100,-0.00000129,-0.00000150,0.00000246,0.0
 0000030,0.00000024,-0.00000123,-0.00000099,0.00000187,0.00000040,-0.00
 000044,0.00000227,0.00000256,0.00001030,0.00007107,-0.00009752,0.00003
 369,-0.00001476,-0.00000129,0.00016330,-0.00023292,0.00007964,-0.00003
 651,0.00012787,-0.00009524,-0.00006125,0.00008897,-0.00000563,0.000037
 34,-0.00003446,0.00004939,0.00000434,0.00000798,0.00001520,0.00000814,
 0.00000345,-0.00001606,-0.00001150,0.00002356,-0.00002733,-0.00000668,
 -0.00000482,-0.00001365,-0.00000053,-0.00000029,-0.00000831,0.00000143
 ,0.00000442,0.00000076,0.00000191,0.00000362,-0.00000021,0.00000145,-0
 .00000098,0.00000251,0.00000132,0.00000266,-0.00000029,-0.00002527,0.0
 0000827,0.00001612,-0.00049928,0.00098437,0.00100493,0.00002234,0.0000
 0541,-0.00000682,-0.00000484,-0.00000195,-0.00000233,0.00000128,0.0000
 0036,0.00000457,-0.00000784,0.00000212,0.00000289,0.00057298,0.0000947
 2,-0.00106331,-0.00004786,-0.00002703,-0.00008618,-0.00005736,-0.00004
 043,0.00010805,0.00107520,-0.00032136,-0.00188870,0.00592900,-0.019780
 96,0.01114983,0.00042903,-0.00375949,-0.00178299,0.00034676,0.00117535
 ,0.00113942,0.00004300,0.00000540,-0.00001862,-0.00001345,-0.00000218,
 0.00000360,-0.00000445,-0.00003776,-0.00000186,-0.00001395,-0.00000249
 ,-0.00000359,0.00001714,0.00000317,0.00000602,0.00000944,0.00002625,-0
 .00000982,-0.00001529,-0.00000067,0.00001132,-0.03780496,0.10946786,-0
 .11705365,-0.00248216,0.01116027,-0.00714406,-0.00780891,0.02055773,-0
 .01305292,0.04022949,-0.11956564,0.12876950\\-0.00000206,-0.00000596,-
 0.00000147,-0.00000763,-0.00001995,-0.00000364,-0.00000932,0.00000943,
 -0.00000683,0.00000292,-0.00000667,0.00000033,0.00000090,-0.00000204,0
 .00000978,-0.00000251,0.00000628,-0.00000410,0.00000291,-0.00000238,0.
 00000321,-0.00000214,-0.00000202,0.00000596,-0.00000206,0.00000145,0.0
 0000229,-0.00000084,-0.00000013,0.00000228,0.00000259,-0.00000107,0.00
 000340,0.00001940,0.00002322,-0.00000346,0.00000812,-0.00000112,0.0000
 0061,0.00001974,-0.00000923,0.00000011,-0.00000353,0.00000302,0.000002
 52,-0.00000340,0.00002018,-0.00000060,-0.00000892,-0.00001042,-0.00000
 161,0.00000928,-0.00000530,0.00000992,0.00000154,0.00000146,0.00000812
 ,0.00000210,0.00000076,-0.00000338,-0.00000597,-0.00000689,-0.00000365
 ,-0.00000213,-0.00000164,-0.00000299,0.00000318,0.00000333,-0.00001142
 ,-0.00000008,0.00000105,-0.00000350,0.00000204,0.00000031,-0.00000191,
 0.00000077,0.00000173,-0.00000242,0.00000660,0.00000258,0.00001907,-0.
 00003266,-0.00001758,-0.00000028,-0.00000364,0.00000362,0.00000623,0.0
 0000405,0.00000385,0.00000109,0.00000368,-0.00000412,-0.00000092,0.000
 00057,0.00000197,-0.00000195,-0.00000886,0.00001163,-0.00000654,0.0000
 0985,-0.00000231,0.00000059,0.00000455,0.00000439,-0.00000978,0.000007
 24,0.00000004,-0.00000132,0.00000551,-0.00000748,0.00001231,-0.0000095
 5,0.00000099,-0.00000300,0.00000221,-0.00000078,-0.00000031,-0.0000044
 4,-0.00000266,-0.00001441,-0.00000043,-0.00000257,0.00000564,-0.000000
 12,0.00000159,0.00000024,0.00000068,0.00000164,0.00000269,-0.00000254,
 -0.00000231,0.00000099,-0.00000082,0.00000098,-0.00000202,0.00000174,0
 .00000083,-0.00000002,0.00000060,0.00000625,-0.00000759,-0.00000684,0.
 00000048,0.00000205,-0.00000012,0.00000318,0.00000388,-0.00000216,-0.0
 0000160,-0.00000419\\\@
 The archive entry for this job was punched.


 ERWIN WITH HIS PSI CAN DO
 CALCULATIONS QUITE A FEW.
 BUT ONE THING HAS NOT BEEN SEEN
 JUST WHAT DOES PSI REALLY MEAN.
 -- WALTER HUCKEL, TRANS. BY FELIX BLOCH
 Job cpu time:       0 days  2 hours 16 minutes 27.1 seconds.
 Elapsed time:       0 days  0 hours 17 minutes  4.3 seconds.
 File lengths (MBytes):  RWF=    669 Int=      0 D2E=      0 Chk=     21 Scr=      1
 Normal termination of Gaussian 16 at Sat Oct 23 08:11:33 2021.
