 Entering Gaussian System, Link 0=/home/rong/g16/g16
 Input=/home/rong/g16/102121/benzCHCHbenzNCH2PhCH2CH3.gjf
 Output=/home/rong/g16/102121/benzCHCHbenzNCH2PhCH2CH3.log
 Initial command:
 /home/rong/g16/l1.exe "/tmp/Gau-64211.inp" -scrdir="/tmp/"
 Default is to use a total of   8 processors:
                                8 via shared-memory
                                1 via Linda
 Entering Link 1 = /home/rong/g16/l1.exe PID=     64213.
  
 Copyright (c) 1988-2019, Gaussian, Inc.  All Rights Reserved.
  
 This is part of the Gaussian(R) 16 program.  It is based on
 the Gaussian(R) 09 system (copyright 2009, Gaussian, Inc.),
 the Gaussian(R) 03 system (copyright 2003, Gaussian, Inc.),
 the Gaussian(R) 98 system (copyright 1998, Gaussian, Inc.),
 the Gaussian(R) 94 system (copyright 1995, Gaussian, Inc.),
 the Gaussian 92(TM) system (copyright 1992, Gaussian, Inc.),
 the Gaussian 90(TM) system (copyright 1990, Gaussian, Inc.),
 the Gaussian 88(TM) system (copyright 1988, Gaussian, Inc.),
 the Gaussian 86(TM) system (copyright 1986, Carnegie Mellon
 University), and the Gaussian 82(TM) system (copyright 1983,
 Carnegie Mellon University). Gaussian is a federally registered
 trademark of Gaussian, Inc.
  
 This software contains proprietary and confidential information,
 including trade secrets, belonging to Gaussian, Inc.
  
 This software is provided under written license and may be
 used, copied, transmitted, or stored only in accord with that
 written license.
  
 The following legend is applicable only to US Government
 contracts under FAR:
  
                    RESTRICTED RIGHTS LEGEND
  
 Use, reproduction and disclosure by the US Government is
 subject to restrictions as set forth in subparagraphs (a)
 and (c) of the Commercial Computer Software - Restricted
 Rights clause in FAR 52.227-19.
  
 Gaussian, Inc.
 340 Quinnipiac St., Bldg. 40, Wallingford CT 06492
  
  
 ---------------------------------------------------------------
 Warning -- This program may not be used in any manner that
 competes with the business of Gaussian, Inc. or will provide
 assistance to any competitor of Gaussian, Inc.  The licensee
 of this program is prohibited from giving any competitor of
 Gaussian, Inc. access to this program.  By using this program,
 the user acknowledges that Gaussian, Inc. is engaged in the
 business of creating and licensing software in the field of
 computational chemistry and represents and warrants to the
 licensee that it is not a competitor of Gaussian, Inc. and that
 it will not use this program in any manner prohibited above.
 ---------------------------------------------------------------
  

 Cite this work as:
 Gaussian 16, Revision C.01,
 M. J. Frisch, G. W. Trucks, H. B. Schlegel, G. E. Scuseria, 
 M. A. Robb, J. R. Cheeseman, G. Scalmani, V. Barone, 
 G. A. Petersson, H. Nakatsuji, X. Li, M. Caricato, A. V. Marenich, 
 J. Bloino, B. G. Janesko, R. Gomperts, B. Mennucci, H. P. Hratchian, 
 J. V. Ortiz, A. F. Izmaylov, J. L. Sonnenberg, D. Williams-Young, 
 F. Ding, F. Lipparini, F. Egidi, J. Goings, B. Peng, A. Petrone, 
 T. Henderson, D. Ranasinghe, V. G. Zakrzewski, J. Gao, N. Rega, 
 G. Zheng, W. Liang, M. Hada, M. Ehara, K. Toyota, R. Fukuda, 
 J. Hasegawa, M. Ishida, T. Nakajima, Y. Honda, O. Kitao, H. Nakai, 
 T. Vreven, K. Throssell, J. A. Montgomery, Jr., J. E. Peralta, 
 F. Ogliaro, M. J. Bearpark, J. J. Heyd, E. N. Brothers, K. N. Kudin, 
 V. N. Staroverov, T. A. Keith, R. Kobayashi, J. Normand, 
 K. Raghavachari, A. P. Rendell, J. C. Burant, S. S. Iyengar, 
 J. Tomasi, M. Cossi, J. M. Millam, M. Klene, C. Adamo, R. Cammi, 
 J. W. Ochterski, R. L. Martin, K. Morokuma, O. Farkas, 
 J. B. Foresman, and D. J. Fox, Gaussian, Inc., Wallingford CT, 2019.
 
 ******************************************
 Gaussian 16:  ES64L-G16RevC.01  3-Jul-2019
                23-Oct-2021 
 ******************************************
 %mem=15GB
 %chk=benzCHCHbenzNCH2PhCH2CH3.chk
 %nprocshared=8
 Will use up to    8 processors via shared memory.
 -------------------------------------------------
 # opt freq b3lyp/6-31g scrf=(smd,solvent=toluene)
 -------------------------------------------------
 1/18=20,19=15,26=3,38=1/1,3;
 2/9=110,12=2,17=6,18=5,40=1/2;
 3/5=1,6=6,11=2,25=1,30=1,70=32201,71=1,72=13,74=-5/1,2,3;
 4//1;
 5/5=2,38=5,53=13/2;
 6/7=2,8=2,9=2,10=2,28=1/1;
 7//1,2,3,16;
 1/18=20,19=15,26=3/3(2);
 2/9=110/2;
 99//99;
 2/9=110/2;
 3/5=1,6=6,11=2,25=1,30=1,70=32205,71=1,72=13,74=-5/1,2,3;
 4/5=5,16=3,69=1/1;
 5/5=2,38=5,53=13/2;
 7//1,2,3,16;
 1/18=20,19=15,26=3/3(-5);
 2/9=110/2;
 6/7=2,8=2,9=2,10=2,19=2,28=1/1;
 99/9=1/99;
 ------------------------
 BenzCHCHBenzNCH2PhCH2CH3
 ------------------------
 Symbolic Z-matrix:
 Charge =  0 Multiplicity = 1
 C                    -3.83801   1.1767    0.03484 
 C                    -2.44285   1.1767    0.03484 
 C                    -1.74531   2.38445   0.03484 
 C                    -2.44296   3.59296   0.03364 
 C                    -3.83779   3.59288   0.03316 
 C                    -4.53539   2.38467   0.03416 
 H                    -4.38777   0.22438   0.03529 
 H                    -0.64563   2.38453   0.03547 
 H                    -1.89276   4.5451    0.03358 
 H                    -4.38791   4.54516   0.03221 
 H                    -5.63499   2.38486   0.03398 
 C                    -1.6733   -0.15724   0.03668 
 H                    -1.50992  -0.47336   1.04578 
 C                    -0.31709   0.03156  -0.66806 
 H                    -0.46525   0.54517  -1.59497 
 C                     0.61896   0.85829   0.233 
 C                     1.38907   1.88398  -0.31596 
 C                     0.6968    0.58178   1.59793 
 C                     2.23732   2.63249   0.49978 
 H                     1.32805   2.10122  -1.39221 
 C                     1.54452   1.33107   2.41423 
 H                     0.08977  -0.22647   2.0308 
 C                     2.31483   2.35622   1.86539 
 H                     2.84483   3.44055   0.06705 
 H                     1.60538   1.1131    3.49045 
 H                     2.98367   2.94657   2.50838 
 N                    -2.45773  -1.17646  -0.67518 
 N                     0.28751  -1.283    -0.92748 
 C                    -3.10477  -2.06617   0.29984 
 H                    -4.0928   -2.30395  -0.03508 
 H                    -2.53411  -2.96628   0.39491 
 C                     1.70081  -1.10892  -1.29239 
 H                     2.28687  -0.99399  -0.40457 
 H                     2.03791  -1.96824  -1.83353 
 C                    -0.42606  -1.94131  -2.03127 
 H                    -1.02308  -1.22069  -2.55009 
 H                     0.28257  -2.37109  -2.70805 
 C                    -3.48501  -0.51927  -1.49597 
 H                    -4.37431  -0.38701  -0.91583 
 H                    -3.12567   0.43491  -1.82049 
 C                    -3.79848  -1.39444  -2.72374 
 H                    -4.83795  -1.31271  -2.96397 
 H                    -3.21298  -1.06399  -3.55614 
 H                    -3.56229  -2.41468  -2.50416 
 C                    -1.33424  -3.04956  -1.46683 
 H                    -1.30025  -3.02846  -0.39758 
 H                    -2.33983  -2.88824  -1.79496 
 H                    -0.99366  -4.002    -1.81578 
 C                    -3.18194  -1.36052   1.66648 
 C                    -4.28873  -0.57229   1.983 
 C                    -2.14543  -1.50947   2.58789 
 C                    -4.35859   0.06735   3.22042 
 H                    -5.10537  -0.45444   1.25605 
 C                    -2.21562  -0.8705    3.82612 
 H                    -1.27311  -2.13082   2.33866 
 C                    -3.32189  -0.08206   4.14245 
 H                    -5.23065   0.68916   3.46973 
 H                    -1.39842  -0.98845   4.55258 
 H                    -3.37723   0.42232   5.11807 
 C                     1.85276   0.14483  -2.17365 
 C                     2.90304   1.03448  -1.94579 
 C                     0.9405    0.39096  -3.19969 
 C                     3.04055   2.17032  -2.74341 
 H                     3.62164   0.84056  -1.13631 
 C                     1.07849   1.52658  -3.99827 
 H                     0.11276  -0.31021  -3.37953 
 C                     2.12821   2.4163   -3.77022 
 H                     3.868     2.87192  -2.56346 
 H                     0.35929   1.72016  -4.80744 
 H                     2.23687   3.31191  -4.39901 
 

 GradGradGradGradGradGradGradGradGradGradGradGradGradGradGradGradGradGrad
 Berny optimization.
 Initialization pass.
                           ----------------------------
                           !    Initial Parameters    !
                           ! (Angstroms and Degrees)  !
 --------------------------                            --------------------------
 ! Name  Definition              Value          Derivative Info.                !
 --------------------------------------------------------------------------------
 ! R1    R(1,2)                  1.3952         estimate D2E/DX2                !
 ! R2    R(1,6)                  1.3948         estimate D2E/DX2                !
 ! R3    R(1,7)                  1.0996         estimate D2E/DX2                !
 ! R4    R(2,3)                  1.3947         estimate D2E/DX2                !
 ! R5    R(2,12)                 1.54           estimate D2E/DX2                !
 ! R6    R(3,4)                  1.3954         estimate D2E/DX2                !
 ! R7    R(3,8)                  1.0997         estimate D2E/DX2                !
 ! R8    R(4,5)                  1.3948         estimate D2E/DX2                !
 ! R9    R(4,9)                  1.0997         estimate D2E/DX2                !
 ! R10   R(5,6)                  1.3951         estimate D2E/DX2                !
 ! R11   R(5,10)                 1.0998         estimate D2E/DX2                !
 ! R12   R(6,11)                 1.0996         estimate D2E/DX2                !
 ! R13   R(12,13)                1.07           estimate D2E/DX2                !
 ! R14   R(12,14)                1.54           estimate D2E/DX2                !
 ! R15   R(12,27)                1.47           estimate D2E/DX2                !
 ! R16   R(14,15)                1.07           estimate D2E/DX2                !
 ! R17   R(14,16)                1.54           estimate D2E/DX2                !
 ! R18   R(14,28)                1.47           estimate D2E/DX2                !
 ! R19   R(16,17)                1.3952         estimate D2E/DX2                !
 ! R20   R(16,18)                1.3948         estimate D2E/DX2                !
 ! R21   R(17,19)                1.3947         estimate D2E/DX2                !
 ! R22   R(17,20)                1.0997         estimate D2E/DX2                !
 ! R23   R(18,21)                1.3951         estimate D2E/DX2                !
 ! R24   R(18,22)                1.0996         estimate D2E/DX2                !
 ! R25   R(19,23)                1.3954         estimate D2E/DX2                !
 ! R26   R(19,24)                1.0997         estimate D2E/DX2                !
 ! R27   R(21,23)                1.3948         estimate D2E/DX2                !
 ! R28   R(21,25)                1.0998         estimate D2E/DX2                !
 ! R29   R(23,26)                1.0997         estimate D2E/DX2                !
 ! R30   R(27,29)                1.47           estimate D2E/DX2                !
 ! R31   R(27,38)                1.47           estimate D2E/DX2                !
 ! R32   R(28,32)                1.47           estimate D2E/DX2                !
 ! R33   R(28,35)                1.47           estimate D2E/DX2                !
 ! R34   R(29,30)                1.07           estimate D2E/DX2                !
 ! R35   R(29,31)                1.07           estimate D2E/DX2                !
 ! R36   R(29,49)                1.54           estimate D2E/DX2                !
 ! R37   R(32,33)                1.07           estimate D2E/DX2                !
 ! R38   R(32,34)                1.07           estimate D2E/DX2                !
 ! R39   R(32,60)                1.54           estimate D2E/DX2                !
 ! R40   R(35,36)                1.07           estimate D2E/DX2                !
 ! R41   R(35,37)                1.07           estimate D2E/DX2                !
 ! R42   R(35,45)                1.54           estimate D2E/DX2                !
 ! R43   R(38,39)                1.07           estimate D2E/DX2                !
 ! R44   R(38,40)                1.07           estimate D2E/DX2                !
 ! R45   R(38,41)                1.54           estimate D2E/DX2                !
 ! R46   R(41,42)                1.07           estimate D2E/DX2                !
 ! R47   R(41,43)                1.07           estimate D2E/DX2                !
 ! R48   R(41,44)                1.07           estimate D2E/DX2                !
 ! R49   R(45,46)                1.07           estimate D2E/DX2                !
 ! R50   R(45,47)                1.07           estimate D2E/DX2                !
 ! R51   R(45,48)                1.07           estimate D2E/DX2                !
 ! R52   R(49,50)                1.3952         estimate D2E/DX2                !
 ! R53   R(49,51)                1.3948         estimate D2E/DX2                !
 ! R54   R(50,52)                1.3947         estimate D2E/DX2                !
 ! R55   R(50,53)                1.0997         estimate D2E/DX2                !
 ! R56   R(51,54)                1.3951         estimate D2E/DX2                !
 ! R57   R(51,55)                1.0996         estimate D2E/DX2                !
 ! R58   R(52,56)                1.3954         estimate D2E/DX2                !
 ! R59   R(52,57)                1.0997         estimate D2E/DX2                !
 ! R60   R(54,56)                1.3948         estimate D2E/DX2                !
 ! R61   R(54,58)                1.0998         estimate D2E/DX2                !
 ! R62   R(56,59)                1.0997         estimate D2E/DX2                !
 ! R63   R(60,61)                1.3952         estimate D2E/DX2                !
 ! R64   R(60,62)                1.3948         estimate D2E/DX2                !
 ! R65   R(61,63)                1.3947         estimate D2E/DX2                !
 ! R66   R(61,64)                1.0997         estimate D2E/DX2                !
 ! R67   R(62,65)                1.3951         estimate D2E/DX2                !
 ! R68   R(62,66)                1.0996         estimate D2E/DX2                !
 ! R69   R(63,67)                1.3954         estimate D2E/DX2                !
 ! R70   R(63,68)                1.0997         estimate D2E/DX2                !
 ! R71   R(65,67)                1.3948         estimate D2E/DX2                !
 ! R72   R(65,69)                1.0998         estimate D2E/DX2                !
 ! R73   R(67,70)                1.0997         estimate D2E/DX2                !
 ! A1    A(2,1,6)              119.9985         estimate D2E/DX2                !
 ! A2    A(2,1,7)              119.9972         estimate D2E/DX2                !
 ! A3    A(6,1,7)              120.0043         estimate D2E/DX2                !
 ! A4    A(1,2,3)              120.0086         estimate D2E/DX2                !
 ! A5    A(1,2,12)             119.9808         estimate D2E/DX2                !
 ! A6    A(3,2,12)             120.0105         estimate D2E/DX2                !
 ! A7    A(2,3,4)              119.9942         estimate D2E/DX2                !
 ! A8    A(2,3,8)              120.0128         estimate D2E/DX2                !
 ! A9    A(4,3,8)              119.993          estimate D2E/DX2                !
 ! A10   A(3,4,5)              119.994          estimate D2E/DX2                !
 ! A11   A(3,4,9)              119.9811         estimate D2E/DX2                !
 ! A12   A(5,4,9)              120.0249         estimate D2E/DX2                !
 ! A13   A(4,5,6)              120.0047         estimate D2E/DX2                !
 ! A14   A(4,5,10)             120.0113         estimate D2E/DX2                !
 ! A15   A(6,5,10)             119.984          estimate D2E/DX2                !
 ! A16   A(1,6,5)              120.0            estimate D2E/DX2                !
 ! A17   A(1,6,11)             120.008          estimate D2E/DX2                !
 ! A18   A(5,6,11)             119.992          estimate D2E/DX2                !
 ! A19   A(2,12,13)            109.4712         estimate D2E/DX2                !
 ! A20   A(2,12,14)            109.4712         estimate D2E/DX2                !
 ! A21   A(2,12,27)            109.4712         estimate D2E/DX2                !
 ! A22   A(13,12,14)           109.4712         estimate D2E/DX2                !
 ! A23   A(13,12,27)           109.4713         estimate D2E/DX2                !
 ! A24   A(14,12,27)           109.4712         estimate D2E/DX2                !
 ! A25   A(12,14,15)           109.4712         estimate D2E/DX2                !
 ! A26   A(12,14,16)           109.4712         estimate D2E/DX2                !
 ! A27   A(12,14,28)           109.4712         estimate D2E/DX2                !
 ! A28   A(15,14,16)           109.4712         estimate D2E/DX2                !
 ! A29   A(15,14,28)           109.4712         estimate D2E/DX2                !
 ! A30   A(16,14,28)           109.4713         estimate D2E/DX2                !
 ! A31   A(14,16,17)           119.9972         estimate D2E/DX2                !
 ! A32   A(14,16,18)           120.0043         estimate D2E/DX2                !
 ! A33   A(17,16,18)           119.9985         estimate D2E/DX2                !
 ! A34   A(16,17,19)           120.0086         estimate D2E/DX2                !
 ! A35   A(16,17,20)           119.9808         estimate D2E/DX2                !
 ! A36   A(19,17,20)           120.0106         estimate D2E/DX2                !
 ! A37   A(16,18,21)           120.0            estimate D2E/DX2                !
 ! A38   A(16,18,22)           120.008          estimate D2E/DX2                !
 ! A39   A(21,18,22)           119.992          estimate D2E/DX2                !
 ! A40   A(17,19,23)           119.9942         estimate D2E/DX2                !
 ! A41   A(17,19,24)           120.0128         estimate D2E/DX2                !
 ! A42   A(23,19,24)           119.993          estimate D2E/DX2                !
 ! A43   A(18,21,23)           120.0047         estimate D2E/DX2                !
 ! A44   A(18,21,25)           119.984          estimate D2E/DX2                !
 ! A45   A(23,21,25)           120.0113         estimate D2E/DX2                !
 ! A46   A(19,23,21)           119.994          estimate D2E/DX2                !
 ! A47   A(19,23,26)           119.9811         estimate D2E/DX2                !
 ! A48   A(21,23,26)           120.0249         estimate D2E/DX2                !
 ! A49   A(12,27,29)           109.4712         estimate D2E/DX2                !
 ! A50   A(12,27,38)           109.4712         estimate D2E/DX2                !
 ! A51   A(29,27,38)           109.4713         estimate D2E/DX2                !
 ! A52   A(14,28,32)           109.4712         estimate D2E/DX2                !
 ! A53   A(14,28,35)           109.4712         estimate D2E/DX2                !
 ! A54   A(32,28,35)           109.4713         estimate D2E/DX2                !
 ! A55   A(27,29,30)           109.4712         estimate D2E/DX2                !
 ! A56   A(27,29,31)           109.4712         estimate D2E/DX2                !
 ! A57   A(27,29,49)           109.4712         estimate D2E/DX2                !
 ! A58   A(30,29,31)           109.4713         estimate D2E/DX2                !
 ! A59   A(30,29,49)           109.4712         estimate D2E/DX2                !
 ! A60   A(31,29,49)           109.4712         estimate D2E/DX2                !
 ! A61   A(28,32,33)           109.4712         estimate D2E/DX2                !
 ! A62   A(28,32,34)           109.4712         estimate D2E/DX2                !
 ! A63   A(28,32,60)           109.4712         estimate D2E/DX2                !
 ! A64   A(33,32,34)           109.4712         estimate D2E/DX2                !
 ! A65   A(33,32,60)           109.4713         estimate D2E/DX2                !
 ! A66   A(34,32,60)           109.4712         estimate D2E/DX2                !
 ! A67   A(28,35,36)           109.4712         estimate D2E/DX2                !
 ! A68   A(28,35,37)           109.4712         estimate D2E/DX2                !
 ! A69   A(28,35,45)           109.4712         estimate D2E/DX2                !
 ! A70   A(36,35,37)           109.4712         estimate D2E/DX2                !
 ! A71   A(36,35,45)           109.4713         estimate D2E/DX2                !
 ! A72   A(37,35,45)           109.4712         estimate D2E/DX2                !
 ! A73   A(27,38,39)           109.4712         estimate D2E/DX2                !
 ! A74   A(27,38,40)           109.4712         estimate D2E/DX2                !
 ! A75   A(27,38,41)           109.4712         estimate D2E/DX2                !
 ! A76   A(39,38,40)           109.4713         estimate D2E/DX2                !
 ! A77   A(39,38,41)           109.4712         estimate D2E/DX2                !
 ! A78   A(40,38,41)           109.4712         estimate D2E/DX2                !
 ! A79   A(38,41,42)           109.4712         estimate D2E/DX2                !
 ! A80   A(38,41,43)           109.4712         estimate D2E/DX2                !
 ! A81   A(38,41,44)           109.4712         estimate D2E/DX2                !
 ! A82   A(42,41,43)           109.4713         estimate D2E/DX2                !
 ! A83   A(42,41,44)           109.4712         estimate D2E/DX2                !
 ! A84   A(43,41,44)           109.4712         estimate D2E/DX2                !
 ! A85   A(35,45,46)           109.4712         estimate D2E/DX2                !
 ! A86   A(35,45,47)           109.4712         estimate D2E/DX2                !
 ! A87   A(35,45,48)           109.4712         estimate D2E/DX2                !
 ! A88   A(46,45,47)           109.4713         estimate D2E/DX2                !
 ! A89   A(46,45,48)           109.4712         estimate D2E/DX2                !
 ! A90   A(47,45,48)           109.4712         estimate D2E/DX2                !
 ! A91   A(29,49,50)           119.9972         estimate D2E/DX2                !
 ! A92   A(29,49,51)           120.0043         estimate D2E/DX2                !
 ! A93   A(50,49,51)           119.9985         estimate D2E/DX2                !
 ! A94   A(49,50,52)           120.0086         estimate D2E/DX2                !
 ! A95   A(49,50,53)           119.9808         estimate D2E/DX2                !
 ! A96   A(52,50,53)           120.0106         estimate D2E/DX2                !
 ! A97   A(49,51,54)           120.0            estimate D2E/DX2                !
 ! A98   A(49,51,55)           120.008          estimate D2E/DX2                !
 ! A99   A(54,51,55)           119.992          estimate D2E/DX2                !
 ! A100  A(50,52,56)           119.9942         estimate D2E/DX2                !
 ! A101  A(50,52,57)           120.0128         estimate D2E/DX2                !
 ! A102  A(56,52,57)           119.993          estimate D2E/DX2                !
 ! A103  A(51,54,56)           120.0047         estimate D2E/DX2                !
 ! A104  A(51,54,58)           119.984          estimate D2E/DX2                !
 ! A105  A(56,54,58)           120.0113         estimate D2E/DX2                !
 ! A106  A(52,56,54)           119.994          estimate D2E/DX2                !
 ! A107  A(52,56,59)           119.9811         estimate D2E/DX2                !
 ! A108  A(54,56,59)           120.0249         estimate D2E/DX2                !
 ! A109  A(32,60,61)           119.9972         estimate D2E/DX2                !
 ! A110  A(32,60,62)           120.0043         estimate D2E/DX2                !
 ! A111  A(61,60,62)           119.9985         estimate D2E/DX2                !
 ! A112  A(60,61,63)           120.0086         estimate D2E/DX2                !
 ! A113  A(60,61,64)           119.9808         estimate D2E/DX2                !
 ! A114  A(63,61,64)           120.0106         estimate D2E/DX2                !
 ! A115  A(60,62,65)           120.0            estimate D2E/DX2                !
 ! A116  A(60,62,66)           120.008          estimate D2E/DX2                !
 ! A117  A(65,62,66)           119.992          estimate D2E/DX2                !
 ! A118  A(61,63,67)           119.9942         estimate D2E/DX2                !
 ! A119  A(61,63,68)           120.0128         estimate D2E/DX2                !
 ! A120  A(67,63,68)           119.993          estimate D2E/DX2                !
 ! A121  A(62,65,67)           120.0047         estimate D2E/DX2                !
 ! A122  A(62,65,69)           119.984          estimate D2E/DX2                !
 ! A123  A(67,65,69)           120.0113         estimate D2E/DX2                !
 ! A124  A(63,67,65)           119.994          estimate D2E/DX2                !
 ! A125  A(63,67,70)           119.9811         estimate D2E/DX2                !
 ! A126  A(65,67,70)           120.0249         estimate D2E/DX2                !
 ! D1    D(6,1,2,3)              0.0323         estimate D2E/DX2                !
 ! D2    D(6,1,2,12)           179.9532         estimate D2E/DX2                !
 ! D3    D(7,1,2,3)           -179.9729         estimate D2E/DX2                !
 ! D4    D(7,1,2,12)            -0.052          estimate D2E/DX2                !
 ! D5    D(2,1,6,5)              0.0149         estimate D2E/DX2                !
 ! D6    D(2,1,6,11)           179.9892         estimate D2E/DX2                !
 ! D7    D(7,1,6,5)           -179.9798         estimate D2E/DX2                !
 ! D8    D(7,1,6,11)            -0.0056         estimate D2E/DX2                !
 ! D9    D(1,2,3,4)             -0.0568         estimate D2E/DX2                !
 ! D10   D(1,2,3,8)            179.9619         estimate D2E/DX2                !
 ! D11   D(12,2,3,4)          -179.9777         estimate D2E/DX2                !
 ! D12   D(12,2,3,8)             0.041          estimate D2E/DX2                !
 ! D13   D(1,2,12,13)          -89.0261         estimate D2E/DX2                !
 ! D14   D(1,2,12,14)          150.9739         estimate D2E/DX2                !
 ! D15   D(1,2,12,27)           30.9739         estimate D2E/DX2                !
 ! D16   D(3,2,12,13)           90.8948         estimate D2E/DX2                !
 ! D17   D(3,2,12,14)          -29.1052         estimate D2E/DX2                !
 ! D18   D(3,2,12,27)         -149.1052         estimate D2E/DX2                !
 ! D19   D(2,3,4,5)              0.0341         estimate D2E/DX2                !
 ! D20   D(2,3,4,9)           -179.9964         estimate D2E/DX2                !
 ! D21   D(8,3,4,5)           -179.9846         estimate D2E/DX2                !
 ! D22   D(8,3,4,9)             -0.0151         estimate D2E/DX2                !
 ! D23   D(3,4,5,6)              0.0131         estimate D2E/DX2                !
 ! D24   D(3,4,5,10)          -179.9995         estimate D2E/DX2                !
 ! D25   D(9,4,5,6)           -179.9563         estimate D2E/DX2                !
 ! D26   D(9,4,5,10)             0.0311         estimate D2E/DX2                !
 ! D27   D(4,5,6,1)             -0.0376         estimate D2E/DX2                !
 ! D28   D(4,5,6,11)           179.9881         estimate D2E/DX2                !
 ! D29   D(10,5,6,1)           179.975          estimate D2E/DX2                !
 ! D30   D(10,5,6,11)            0.0007         estimate D2E/DX2                !
 ! D31   D(2,12,14,15)         -47.7967         estimate D2E/DX2                !
 ! D32   D(2,12,14,16)          72.2032         estimate D2E/DX2                !
 ! D33   D(2,12,14,28)        -167.7967         estimate D2E/DX2                !
 ! D34   D(13,12,14,15)       -167.7967         estimate D2E/DX2                !
 ! D35   D(13,12,14,16)        -47.7967         estimate D2E/DX2                !
 ! D36   D(13,12,14,28)         72.2033         estimate D2E/DX2                !
 ! D37   D(27,12,14,15)         72.2032         estimate D2E/DX2                !
 ! D38   D(27,12,14,16)       -167.7968         estimate D2E/DX2                !
 ! D39   D(27,12,14,28)        -47.7968         estimate D2E/DX2                !
 ! D40   D(2,12,27,29)        -102.6054         estimate D2E/DX2                !
 ! D41   D(2,12,27,38)          17.3947         estimate D2E/DX2                !
 ! D42   D(13,12,27,29)         17.3946         estimate D2E/DX2                !
 ! D43   D(13,12,27,38)        137.3946         estimate D2E/DX2                !
 ! D44   D(14,12,27,29)        137.3946         estimate D2E/DX2                !
 ! D45   D(14,12,27,38)       -102.6053         estimate D2E/DX2                !
 ! D46   D(12,14,16,17)       -136.2324         estimate D2E/DX2                !
 ! D47   D(12,14,16,18)         43.7623         estimate D2E/DX2                !
 ! D48   D(15,14,16,17)        -16.2324         estimate D2E/DX2                !
 ! D49   D(15,14,16,18)        163.7623         estimate D2E/DX2                !
 ! D50   D(28,14,16,17)        103.7676         estimate D2E/DX2                !
 ! D51   D(28,14,16,18)        -76.2377         estimate D2E/DX2                !
 ! D52   D(12,14,28,32)       -166.3265         estimate D2E/DX2                !
 ! D53   D(12,14,28,35)         73.6735         estimate D2E/DX2                !
 ! D54   D(15,14,28,32)         73.6735         estimate D2E/DX2                !
 ! D55   D(15,14,28,35)        -46.3265         estimate D2E/DX2                !
 ! D56   D(16,14,28,32)        -46.3265         estimate D2E/DX2                !
 ! D57   D(16,14,28,35)       -166.3265         estimate D2E/DX2                !
 ! D58   D(14,16,17,19)       -179.9729         estimate D2E/DX2                !
 ! D59   D(14,16,17,20)         -0.052          estimate D2E/DX2                !
 ! D60   D(18,16,17,19)          0.0323         estimate D2E/DX2                !
 ! D61   D(18,16,17,20)        179.9532         estimate D2E/DX2                !
 ! D62   D(14,16,18,21)       -179.9798         estimate D2E/DX2                !
 ! D63   D(14,16,18,22)         -0.0056         estimate D2E/DX2                !
 ! D64   D(17,16,18,21)          0.0149         estimate D2E/DX2                !
 ! D65   D(17,16,18,22)        179.9892         estimate D2E/DX2                !
 ! D66   D(16,17,19,23)         -0.0568         estimate D2E/DX2                !
 ! D67   D(16,17,19,24)        179.9619         estimate D2E/DX2                !
 ! D68   D(20,17,19,23)       -179.9777         estimate D2E/DX2                !
 ! D69   D(20,17,19,24)          0.041          estimate D2E/DX2                !
 ! D70   D(16,18,21,23)         -0.0376         estimate D2E/DX2                !
 ! D71   D(16,18,21,25)        179.975          estimate D2E/DX2                !
 ! D72   D(22,18,21,23)        179.9881         estimate D2E/DX2                !
 ! D73   D(22,18,21,25)          0.0007         estimate D2E/DX2                !
 ! D74   D(17,19,23,21)          0.0341         estimate D2E/DX2                !
 ! D75   D(17,19,23,26)       -179.9964         estimate D2E/DX2                !
 ! D76   D(24,19,23,21)       -179.9846         estimate D2E/DX2                !
 ! D77   D(24,19,23,26)         -0.0151         estimate D2E/DX2                !
 ! D78   D(18,21,23,19)          0.0131         estimate D2E/DX2                !
 ! D79   D(18,21,23,26)       -179.9563         estimate D2E/DX2                !
 ! D80   D(25,21,23,19)       -179.9995         estimate D2E/DX2                !
 ! D81   D(25,21,23,26)          0.0311         estimate D2E/DX2                !
 ! D82   D(12,27,29,30)        140.6427         estimate D2E/DX2                !
 ! D83   D(12,27,29,31)        -99.3573         estimate D2E/DX2                !
 ! D84   D(12,27,29,49)         20.6427         estimate D2E/DX2                !
 ! D85   D(38,27,29,30)         20.6427         estimate D2E/DX2                !
 ! D86   D(38,27,29,31)        140.6427         estimate D2E/DX2                !
 ! D87   D(38,27,29,49)        -99.3573         estimate D2E/DX2                !
 ! D88   D(12,27,38,39)        -88.9774         estimate D2E/DX2                !
 ! D89   D(12,27,38,40)         31.0226         estimate D2E/DX2                !
 ! D90   D(12,27,38,41)        151.0226         estimate D2E/DX2                !
 ! D91   D(29,27,38,39)         31.0225         estimate D2E/DX2                !
 ! D92   D(29,27,38,40)        151.0226         estimate D2E/DX2                !
 ! D93   D(29,27,38,41)        -88.9774         estimate D2E/DX2                !
 ! D94   D(14,28,32,33)         81.7002         estimate D2E/DX2                !
 ! D95   D(14,28,32,34)       -158.2998         estimate D2E/DX2                !
 ! D96   D(14,28,32,60)        -38.2998         estimate D2E/DX2                !
 ! D97   D(35,28,32,33)       -158.2998         estimate D2E/DX2                !
 ! D98   D(35,28,32,34)        -38.2998         estimate D2E/DX2                !
 ! D99   D(35,28,32,60)         81.7002         estimate D2E/DX2                !
 ! D100  D(14,28,35,36)         15.324          estimate D2E/DX2                !
 ! D101  D(14,28,35,37)        135.324          estimate D2E/DX2                !
 ! D102  D(14,28,35,45)       -104.676          estimate D2E/DX2                !
 ! D103  D(32,28,35,36)       -104.676          estimate D2E/DX2                !
 ! D104  D(32,28,35,37)         15.324          estimate D2E/DX2                !
 ! D105  D(32,28,35,45)        135.324          estimate D2E/DX2                !
 ! D106  D(27,29,49,50)         89.3729         estimate D2E/DX2                !
 ! D107  D(27,29,49,51)        -90.6323         estimate D2E/DX2                !
 ! D108  D(30,29,49,50)        -30.6271         estimate D2E/DX2                !
 ! D109  D(30,29,49,51)        149.3677         estimate D2E/DX2                !
 ! D110  D(31,29,49,50)       -150.6271         estimate D2E/DX2                !
 ! D111  D(31,29,49,51)         29.3676         estimate D2E/DX2                !
 ! D112  D(28,32,60,61)        136.4801         estimate D2E/DX2                !
 ! D113  D(28,32,60,62)        -43.5252         estimate D2E/DX2                !
 ! D114  D(33,32,60,61)         16.4801         estimate D2E/DX2                !
 ! D115  D(33,32,60,62)       -163.5252         estimate D2E/DX2                !
 ! D116  D(34,32,60,61)       -103.5199         estimate D2E/DX2                !
 ! D117  D(34,32,60,62)         76.4748         estimate D2E/DX2                !
 ! D118  D(28,35,45,46)          4.842          estimate D2E/DX2                !
 ! D119  D(28,35,45,47)        124.8421         estimate D2E/DX2                !
 ! D120  D(28,35,45,48)       -115.158          estimate D2E/DX2                !
 ! D121  D(36,35,45,46)       -115.1579         estimate D2E/DX2                !
 ! D122  D(36,35,45,47)          4.8421         estimate D2E/DX2                !
 ! D123  D(36,35,45,48)        124.8421         estimate D2E/DX2                !
 ! D124  D(37,35,45,46)        124.842          estimate D2E/DX2                !
 ! D125  D(37,35,45,47)       -115.1579         estimate D2E/DX2                !
 ! D126  D(37,35,45,48)          4.842          estimate D2E/DX2                !
 ! D127  D(27,38,41,42)        144.905          estimate D2E/DX2                !
 ! D128  D(27,38,41,43)        -95.095          estimate D2E/DX2                !
 ! D129  D(27,38,41,44)         24.905          estimate D2E/DX2                !
 ! D130  D(39,38,41,42)         24.905          estimate D2E/DX2                !
 ! D131  D(39,38,41,43)        144.905          estimate D2E/DX2                !
 ! D132  D(39,38,41,44)        -95.095          estimate D2E/DX2                !
 ! D133  D(40,38,41,42)        -95.095          estimate D2E/DX2                !
 ! D134  D(40,38,41,43)         24.905          estimate D2E/DX2                !
 ! D135  D(40,38,41,44)        144.905          estimate D2E/DX2                !
 ! D136  D(29,49,50,52)       -179.9729         estimate D2E/DX2                !
 ! D137  D(29,49,50,53)         -0.052          estimate D2E/DX2                !
 ! D138  D(51,49,50,52)          0.0323         estimate D2E/DX2                !
 ! D139  D(51,49,50,53)        179.9532         estimate D2E/DX2                !
 ! D140  D(29,49,51,54)       -179.9798         estimate D2E/DX2                !
 ! D141  D(29,49,51,55)         -0.0055         estimate D2E/DX2                !
 ! D142  D(50,49,51,54)          0.0149         estimate D2E/DX2                !
 ! D143  D(50,49,51,55)        179.9892         estimate D2E/DX2                !
 ! D144  D(49,50,52,56)         -0.0568         estimate D2E/DX2                !
 ! D145  D(49,50,52,57)        179.9619         estimate D2E/DX2                !
 ! D146  D(53,50,52,56)       -179.9777         estimate D2E/DX2                !
 ! D147  D(53,50,52,57)          0.041          estimate D2E/DX2                !
 ! D148  D(49,51,54,56)         -0.0376         estimate D2E/DX2                !
 ! D149  D(49,51,54,58)        179.975          estimate D2E/DX2                !
 ! D150  D(55,51,54,56)        179.9881         estimate D2E/DX2                !
 ! D151  D(55,51,54,58)          0.0007         estimate D2E/DX2                !
 ! D152  D(50,52,56,54)          0.0341         estimate D2E/DX2                !
 ! D153  D(50,52,56,59)       -179.9964         estimate D2E/DX2                !
 ! D154  D(57,52,56,54)       -179.9846         estimate D2E/DX2                !
 ! D155  D(57,52,56,59)         -0.0151         estimate D2E/DX2                !
 ! D156  D(51,54,56,52)          0.0131         estimate D2E/DX2                !
 ! D157  D(51,54,56,59)       -179.9563         estimate D2E/DX2                !
 ! D158  D(58,54,56,52)       -179.9995         estimate D2E/DX2                !
 ! D159  D(58,54,56,59)          0.0311         estimate D2E/DX2                !
 ! D160  D(32,60,61,63)       -179.9729         estimate D2E/DX2                !
 ! D161  D(32,60,61,64)         -0.052          estimate D2E/DX2                !
 ! D162  D(62,60,61,63)          0.0323         estimate D2E/DX2                !
 ! D163  D(62,60,61,64)        179.9532         estimate D2E/DX2                !
 ! D164  D(32,60,62,65)       -179.9798         estimate D2E/DX2                !
 ! D165  D(32,60,62,66)         -0.0056         estimate D2E/DX2                !
 ! D166  D(61,60,62,65)          0.0149         estimate D2E/DX2                !
 ! D167  D(61,60,62,66)        179.9892         estimate D2E/DX2                !
 ! D168  D(60,61,63,67)         -0.0568         estimate D2E/DX2                !
 ! D169  D(60,61,63,68)        179.9619         estimate D2E/DX2                !
 ! D170  D(64,61,63,67)       -179.9777         estimate D2E/DX2                !
 ! D171  D(64,61,63,68)          0.041          estimate D2E/DX2                !
 ! D172  D(60,62,65,67)         -0.0376         estimate D2E/DX2                !
 ! D173  D(60,62,65,69)        179.975          estimate D2E/DX2                !
 ! D174  D(66,62,65,67)        179.9881         estimate D2E/DX2                !
 ! D175  D(66,62,65,69)          0.0007         estimate D2E/DX2                !
 ! D176  D(61,63,67,65)          0.0341         estimate D2E/DX2                !
 ! D177  D(61,63,67,70)       -179.9964         estimate D2E/DX2                !
 ! D178  D(68,63,67,65)       -179.9846         estimate D2E/DX2                !
 ! D179  D(68,63,67,70)         -0.0151         estimate D2E/DX2                !
 ! D180  D(62,65,67,63)          0.0131         estimate D2E/DX2                !
 ! D181  D(62,65,67,70)       -179.9563         estimate D2E/DX2                !
 ! D182  D(69,65,67,63)       -179.9995         estimate D2E/DX2                !
 ! D183  D(69,65,67,70)          0.031          estimate D2E/DX2                !
 --------------------------------------------------------------------------------
 Trust Radius=3.00D-01 FncErr=1.00D-07 GrdErr=1.00D-06 EigMax=2.50D+02 EigMin=1.00D-04
 Number of steps in this run=    392 maximum allowed number of steps=    420.
 GradGradGradGradGradGradGradGradGradGradGradGradGradGradGradGradGradGrad

 Stoichiometry    C32H36N2
 Framework group  C1[X(C32H36N2)]
 Deg. of freedom   204
 Full point group                 C1      NOp   1
 Largest Abelian subgroup         C1      NOp   1
 Largest concise Abelian subgroup C1      NOp   1
                         Standard orientation:                         
 ---------------------------------------------------------------------
 Center     Atomic      Atomic             Coordinates (Angstroms)
 Number     Number       Type             X           Y           Z
 ---------------------------------------------------------------------
      1          6           0       -2.299258    0.245542    1.870701
      2          6           0       -1.143889   -0.189023    1.220511
      3          6           0       -0.297753   -1.107662    1.841300
      4          6           0       -0.606227   -1.591263    3.113381
      5          6           0       -1.761089   -1.156397    3.763550
      6          6           0       -2.607891   -0.238224    3.142025
      7          1           0       -2.966462    0.969476    1.380903
      8          1           0        0.612613   -1.450714    1.328615
      9          1           0        0.061103   -2.315527    3.602676
     10          1           0       -2.004475   -1.537339    4.766107
     11          1           0       -3.518369    0.104311    3.654693
     12          6           0       -0.804087    0.344539   -0.183571
     13          1           0       -1.258321   -0.281772   -0.922696
     14          6           0        0.723636    0.342551   -0.377628
     15          1           0        1.192083    0.787610    0.475239
     16          6           0        1.218922   -1.106858   -0.537335
     17          6           0        2.367169   -1.529469    0.133038
     18          6           0        0.519559   -1.997169   -1.352065
     19          6           0        2.816258   -2.841924   -0.011877
     20          1           0        2.918742   -0.827107    0.774674
     21          6           0        0.968097   -3.310334   -1.496353
     22          1           0       -0.385559   -1.664302   -1.880356
     23          6           0        2.116327   -3.732783   -0.826546
     24          1           0        3.721665   -3.174928    0.515991
     25          1           0        0.416244   -4.012198   -2.138474
     26          1           0        2.470577   -4.767574   -0.940607
     27          7           0       -1.313971    1.716192   -0.323162
     28          7           0        1.065578    1.112745   -1.582110
     29          6           0       -2.549306    1.701042   -1.119790
     30          1           0       -3.248034    2.398790   -0.707688
     31          1           0       -2.325748    1.974500   -2.129811
     32          6           0        2.462450    0.845906   -1.954193
     33          1           0        2.516473   -0.071161   -2.502801
     34          1           0        2.829040    1.646954   -2.561509
     35          6           0        0.896293    2.547525   -1.310729
     36          1           0        0.829060    2.705244   -0.254555
     37          1           0        1.735843    3.085432   -1.698947
     38          6           0       -1.596235    2.271886    1.008166
     39          1           0       -2.601807    2.035720    1.287360
     40          1           0       -0.919543    1.849938    1.721573
     41          6           0       -1.418596    3.801231    0.974286
     42          1           0       -2.137630    4.258241    1.621613
     43          1           0       -0.431937    4.053058    1.302898
     44          1           0       -1.562798    4.154990   -0.025194
     45          6           0       -0.392610    3.049446   -1.987784
     46          1           0       -0.909978    2.222358   -2.427279
     47          1           0       -1.020654    3.515790   -1.257726
     48          1           0       -0.142734    3.758928   -2.748769
     49          6           0       -3.159578    0.287362   -1.093796
     50          6           0       -4.063790   -0.063709   -0.090989
     51          6           0       -2.808467   -0.642042   -2.072815
     52          6           0       -4.616199   -1.344133   -0.066894
     53          1           0       -4.339806    0.668998    0.681150
     54          6           0       -3.361709   -1.922583   -2.049423
     55          1           0       -2.095958   -0.365454   -2.863359
     56          6           0       -4.265347   -2.273792   -1.046614
     57          1           0       -5.328435   -1.621124    0.723861
     58          1           0       -3.085001   -2.655038   -2.821705
     59          1           0       -4.701076   -3.283282   -1.027444
     60          6           0        3.320471    0.733339   -0.680330
     61          6           0        4.270753   -0.281826   -0.566858
     62          6           0        3.147688    1.646303    0.359954
     63          6           0        5.047563   -0.384336    0.586953
     64          1           0        4.406195   -1.001896   -1.386856
     65          6           0        3.925339    1.544496    1.513775
     66          1           0        2.398887    2.446581    0.270613
     67          6           0        4.875083    0.529315    1.627487
     68          1           0        5.796169   -1.184852    0.676725
     69          1           0        3.789172    2.264719    2.333661
     70          1           0        5.487726    0.448325    2.537105
 ---------------------------------------------------------------------
 Rotational constants (GHZ):           0.1936837           0.1150818           0.1054111
 Standard basis: 6-31G (6D, 7F)
 There are   378 symmetry adapted cartesian basis functions of A   symmetry.
 There are   378 symmetry adapted basis functions of A   symmetry.
   378 basis functions,   892 primitive gaussians,   378 cartesian basis functions
   121 alpha electrons      121 beta electrons
       nuclear repulsion energy      3838.0971498557 Hartrees.
 NAtoms=   70 NActive=   70 NUniq=   70 SFac= 1.00D+00 NAtFMM=   60 NAOKFM=T Big=T
 Integral buffers will be    131072 words long.
 Raffenetti 2 integral format.
 Two-electron integral symmetry is turned on.
 ------------------------------------------------------------------------------
 Polarizable Continuum Model (PCM)
 =================================
 Model                : PCM.
 Atomic radii         : SMD-Coulomb.
 Polarization charges : Total charges.
 Charge compensation  : None.
 Solution method      : On-the-fly selection.
 Cavity type          : VdW (van der Waals Surface) (Alpha=1.000).
 Cavity algorithm     : GePol (No added spheres)
                        Default sphere list used, NSphG=   70.
                        Lebedev-Laikov grids with approx.  5.0 points / Ang**2.
                        Smoothing algorithm: York/Karplus (Gamma=1.0000).
                        Polarization charges: spherical gaussians, with
                                              point-specific exponents (IZeta= 3).
                        Self-potential: point-specific (ISelfS= 7).
                        Self-field    : sphere-specific E.n sum rule (ISelfD= 2).
 1st derivatives      : Analytical E(r).r(x)/FMM algorithm (CHGder, D1EAlg=3).
                        Cavity 1st derivative terms included.
 Solvent              : Toluene, Eps=   2.374100 Eps(inf)=   2.238315
 ------------------------------------------------------------------------------
 ------------------------------------------------------------------------------
 Atomic radii for non-electrostatic terms: SMD-CDS.
 ------------------------------------------------------------------------------
 Nuclear repulsion after PCM non-electrostatic terms =     3838.0796821529 Hartrees.
 One-electron integrals computed using PRISM.
 NBasis=   378 RedAO= T EigKep=  5.07D-04  NBF=   378
 NBsUse=   378 1.00D-06 EigRej= -1.00D+00 NBFU=   378
 ExpMin= 1.61D-01 ExpMax= 4.17D+03 ExpMxC= 6.27D+02 IAcc=3 IRadAn=         5 AccDes= 0.00D+00
 Harris functional with IExCor=  402 and IRadAn=       5 diagonalized for initial guess.
 HarFok:  IExCor=  402 AccDes= 0.00D+00 IRadAn=         5 IDoV= 1 UseB2=F ITyADJ=14
 ICtDFT=  3500011 ScaDFX=  1.000000  1.000000  1.000000  1.000000
 FoFCou: FMM=F IPFlag=           0 FMFlag=      100000 FMFlg1=        2001
         NFxFlg=           0 DoJE=T BraDBF=F KetDBF=T FulRan=T
         wScrn=  0.000000 ICntrl=       500 IOpCl=  0 I1Cent=   200000004 NGrid=           0
         NMat0=    1 NMatS0=      1 NMatT0=    0 NMatD0=    1 NMtDS0=    0 NMtDT0=    0
 Petite list used in FoFCou.
 Requested convergence on RMS density matrix=1.00D-08 within 128 cycles.
 Requested convergence on MAX density matrix=1.00D-06.
 Requested convergence on             energy=1.00D-06.
 No special actions if energy rises.
 Inv3:  Mode=1 IEnd=    53881932.
 Iteration    1 A*A^-1 deviation from unit magnitude is 5.88D-15 for   4223.
 Iteration    1 A*A^-1 deviation from orthogonality  is 1.83D-15 for   2116   1813.
 Iteration    1 A^-1*A deviation from unit magnitude is 5.88D-15 for   4223.
 Iteration    1 A^-1*A deviation from orthogonality  is 1.78D-15 for   2528   1777.
 Error on total polarization charges =  0.04587
 SCF Done:  E(RB3LYP) =  -1349.95493554     A.U. after   12 cycles
            NFock= 12  Conv=0.93D-08     -V/T= 2.0037
 SMD-CDS (non-electrostatic) energy       (kcal/mol) =     -10.96
 (included in total energy above)

 **********************************************************************

            Population analysis using the SCF Density.

 **********************************************************************

 Orbital symmetries:
       Occupied  (A) (A) (A) (A) (A) (A) (A) (A) (A) (A) (A) (A)
                 (A) (A) (A) (A) (A) (A) (A) (A) (A) (A) (A) (A)
                 (A) (A) (A) (A) (A) (A) (A) (A) (A) (A) (A) (A)
                 (A) (A) (A) (A) (A) (A) (A) (A) (A) (A) (A) (A)
                 (A) (A) (A) (A) (A) (A) (A) (A) (A) (A) (A) (A)
                 (A) (A) (A) (A) (A) (A) (A) (A) (A) (A) (A) (A)
                 (A) (A) (A) (A) (A) (A) (A) (A) (A) (A) (A) (A)
                 (A) (A) (A) (A) (A) (A) (A) (A) (A) (A) (A) (A)
                 (A) (A) (A) (A) (A) (A) (A) (A) (A) (A) (A) (A)
                 (A) (A) (A) (A) (A) (A) (A) (A) (A) (A) (A) (A)
                 (A)
       Virtual   (A) (A) (A) (A) (A) (A) (A) (A) (A) (A) (A) (A)
                 (A) (A) (A) (A) (A) (A) (A) (A) (A) (A) (A) (A)
                 (A) (A) (A) (A) (A) (A) (A) (A) (A) (A) (A) (A)
                 (A) (A) (A) (A) (A) (A) (A) (A) (A) (A) (A) (A)
                 (A) (A) (A) (A) (A) (A) (A) (A) (A) (A) (A) (A)
                 (A) (A) (A) (A) (A) (A) (A) (A) (A) (A) (A) (A)
                 (A) (A) (A) (A) (A) (A) (A) (A) (A) (A) (A) (A)
                 (A) (A) (A) (A) (A) (A) (A) (A) (A) (A) (A) (A)
                 (A) (A) (A) (A) (A) (A) (A) (A) (A) (A) (A) (A)
                 (A) (A) (A) (A) (A) (A) (A) (A) (A) (A) (A) (A)
                 (A) (A) (A) (A) (A) (A) (A) (A) (A) (A) (A) (A)
                 (A) (A) (A) (A) (A) (A) (A) (A) (A) (A) (A) (A)
                 (A) (A) (A) (A) (A) (A) (A) (A) (A) (A) (A) (A)
                 (A) (A) (A) (A) (A) (A) (A) (A) (A) (A) (A) (A)
                 (A) (A) (A) (A) (A) (A) (A) (A) (A) (A) (A) (A)
                 (A) (A) (A) (A) (A) (A) (A) (A) (A) (A) (A) (A)
                 (A) (A) (A) (A) (A) (A) (A) (A) (A) (A) (A) (A)
                 (A) (A) (A) (A) (A) (A) (A) (A) (A) (A) (A) (A)
                 (A) (A) (A) (A) (A) (A) (A) (A) (A) (A) (A) (A)
                 (A) (A) (A) (A) (A) (A) (A) (A) (A) (A) (A) (A)
                 (A) (A) (A) (A) (A) (A) (A) (A) (A) (A) (A) (A)
                 (A) (A) (A) (A) (A)
 The electronic state is 1-A.
 Alpha  occ. eigenvalues --  -14.31017 -14.30895 -10.19248 -10.19232 -10.18991
 Alpha  occ. eigenvalues --  -10.18846 -10.18811 -10.18432 -10.18377 -10.18357
 Alpha  occ. eigenvalues --  -10.18272 -10.18204 -10.18195 -10.18182 -10.18140
 Alpha  occ. eigenvalues --  -10.18064 -10.17976 -10.17954 -10.17927 -10.17841
 Alpha  occ. eigenvalues --  -10.17750 -10.17682 -10.17607 -10.17490 -10.17450
 Alpha  occ. eigenvalues --  -10.17443 -10.17275 -10.17210 -10.17053 -10.16934
 Alpha  occ. eigenvalues --  -10.16440 -10.16136 -10.14656 -10.12426  -0.95300
 Alpha  occ. eigenvalues --   -0.92573  -0.86115  -0.85718  -0.85269  -0.84507
 Alpha  occ. eigenvalues --   -0.78596  -0.77327  -0.76613  -0.75330  -0.74978
 Alpha  occ. eigenvalues --   -0.74423  -0.74174  -0.73580  -0.72921  -0.72383
 Alpha  occ. eigenvalues --   -0.70359  -0.67313  -0.66233  -0.63565  -0.61543
 Alpha  occ. eigenvalues --   -0.61027  -0.60548  -0.60298  -0.59126  -0.58474
 Alpha  occ. eigenvalues --   -0.57854  -0.57730  -0.57245  -0.55614  -0.52099
 Alpha  occ. eigenvalues --   -0.51215  -0.50919  -0.50248  -0.49128  -0.48322
 Alpha  occ. eigenvalues --   -0.47626  -0.47431  -0.46505  -0.45644  -0.45133
 Alpha  occ. eigenvalues --   -0.45079  -0.44508  -0.44040  -0.43858  -0.43436
 Alpha  occ. eigenvalues --   -0.43120  -0.42403  -0.42113  -0.41962  -0.41428
 Alpha  occ. eigenvalues --   -0.41307  -0.40971  -0.40460  -0.39747  -0.39574
 Alpha  occ. eigenvalues --   -0.38685  -0.38031  -0.37452  -0.36774  -0.36247
 Alpha  occ. eigenvalues --   -0.35630  -0.35382  -0.35159  -0.34684  -0.34421
 Alpha  occ. eigenvalues --   -0.34206  -0.33820  -0.33586  -0.33367  -0.32814
 Alpha  occ. eigenvalues --   -0.32075  -0.31670  -0.31013  -0.30610  -0.30419
 Alpha  occ. eigenvalues --   -0.29762  -0.26616  -0.25290  -0.24815  -0.24428
 Alpha  occ. eigenvalues --   -0.23561  -0.23126  -0.21653  -0.20939  -0.19941
 Alpha  occ. eigenvalues --   -0.18588
 Alpha virt. eigenvalues --   -0.01144  -0.00837  -0.00366   0.00091   0.01440
 Alpha virt. eigenvalues --    0.01649   0.02316   0.03063   0.06451   0.08822
 Alpha virt. eigenvalues --    0.09504   0.10759   0.11703   0.12167   0.12264
 Alpha virt. eigenvalues --    0.12855   0.13825   0.14060   0.14178   0.14637
 Alpha virt. eigenvalues --    0.14962   0.15433   0.15650   0.16135   0.16346
 Alpha virt. eigenvalues --    0.16604   0.16917   0.17258   0.17634   0.17678
 Alpha virt. eigenvalues --    0.18289   0.18747   0.18961   0.19316   0.19470
 Alpha virt. eigenvalues --    0.19600   0.20247   0.20630   0.20824   0.21140
 Alpha virt. eigenvalues --    0.21616   0.22343   0.22871   0.23385   0.24122
 Alpha virt. eigenvalues --    0.24350   0.25083   0.25661   0.25849   0.26011
 Alpha virt. eigenvalues --    0.26801   0.26997   0.28398   0.28447   0.29120
 Alpha virt. eigenvalues --    0.30217   0.31168   0.31366   0.31735   0.32018
 Alpha virt. eigenvalues --    0.32418   0.33042   0.33753   0.33952   0.34319
 Alpha virt. eigenvalues --    0.35124   0.35294   0.35444   0.36571   0.36952
 Alpha virt. eigenvalues --    0.37396   0.37549   0.38492   0.39170   0.39754
 Alpha virt. eigenvalues --    0.40490   0.42166   0.49681   0.49867   0.50787
 Alpha virt. eigenvalues --    0.51413   0.52706   0.53212   0.53484   0.54057
 Alpha virt. eigenvalues --    0.54789   0.54889   0.55682   0.56170   0.56345
 Alpha virt. eigenvalues --    0.56822   0.57052   0.57457   0.57771   0.58081
 Alpha virt. eigenvalues --    0.58397   0.58994   0.59166   0.59553   0.59822
 Alpha virt. eigenvalues --    0.60595   0.60759   0.60896   0.61627   0.62056
 Alpha virt. eigenvalues --    0.62409   0.62865   0.63137   0.63442   0.63763
 Alpha virt. eigenvalues --    0.63794   0.64259   0.64513   0.64738   0.65095
 Alpha virt. eigenvalues --    0.65626   0.65828   0.66075   0.66345   0.66612
 Alpha virt. eigenvalues --    0.66798   0.66933   0.67413   0.67939   0.68225
 Alpha virt. eigenvalues --    0.68592   0.68897   0.69864   0.70477   0.70796
 Alpha virt. eigenvalues --    0.71903   0.72536   0.73356   0.74060   0.74976
 Alpha virt. eigenvalues --    0.75651   0.77350   0.77567   0.78317   0.78725
 Alpha virt. eigenvalues --    0.80278   0.80884   0.81559   0.82363   0.82684
 Alpha virt. eigenvalues --    0.83566   0.83864   0.84340   0.84723   0.85242
 Alpha virt. eigenvalues --    0.85390   0.85578   0.85745   0.86403   0.86753
 Alpha virt. eigenvalues --    0.87256   0.87539   0.87977   0.88275   0.88843
 Alpha virt. eigenvalues --    0.89017   0.90101   0.90835   0.91104   0.91937
 Alpha virt. eigenvalues --    0.92564   0.92893   0.93593   0.93802   0.93932
 Alpha virt. eigenvalues --    0.94117   0.94791   0.95531   0.95966   0.96675
 Alpha virt. eigenvalues --    0.96845   0.98094   0.98610   0.99407   0.99711
 Alpha virt. eigenvalues --    1.00186   1.00954   1.01522   1.02017   1.02384
 Alpha virt. eigenvalues --    1.02766   1.03441   1.04622   1.04949   1.05880
 Alpha virt. eigenvalues --    1.06063   1.06487   1.07448   1.08612   1.09302
 Alpha virt. eigenvalues --    1.09516   1.10842   1.11791   1.12890   1.13853
 Alpha virt. eigenvalues --    1.14226   1.16152   1.17022   1.18002   1.18217
 Alpha virt. eigenvalues --    1.19145   1.20201   1.20334   1.20718   1.21284
 Alpha virt. eigenvalues --    1.21929   1.22649   1.24326   1.25753   1.26522
 Alpha virt. eigenvalues --    1.27304   1.28126   1.28469   1.30551   1.31195
 Alpha virt. eigenvalues --    1.33158   1.34636   1.35517   1.37602   1.38810
 Alpha virt. eigenvalues --    1.40803   1.42174   1.43254   1.44598   1.46838
 Alpha virt. eigenvalues --    1.47838   1.48761   1.50410   1.50860   1.52888
 Alpha virt. eigenvalues --    1.53580   1.55522   1.55927   1.56451   1.61220
 Alpha virt. eigenvalues --    1.63770   1.65966   1.68825   1.71555   1.75092
 Alpha virt. eigenvalues --    1.80464   1.84212   1.90004   1.93506   1.94374
 Alpha virt. eigenvalues --    1.97661   2.02811   2.02993   2.09227   2.13271
 Alpha virt. eigenvalues --    2.25581   2.44352
          Condensed to atoms (all electrons):
 Mulliken charges:
               1
     1  C   -0.096916
     2  C    0.061445
     3  C   -0.120547
     4  C   -0.179886
     5  C   -0.137173
     6  C   -0.165682
     7  H    0.078173
     8  H    0.155165
     9  H    0.129679
    10  H    0.125794
    11  H    0.122093
    12  C   -0.026841
    13  H    0.174509
    14  C   -0.063067
    15  H    0.137809
    16  C    0.017652
    17  C   -0.134600
    18  C   -0.118270
    19  C   -0.152490
    20  H    0.164663
    21  C   -0.163184
    22  H    0.148751
    23  C   -0.135453
    24  H    0.131623
    25  H    0.133193
    26  H    0.132885
    27  N   -0.481584
    28  N   -0.431040
    29  C   -0.198805
    30  H    0.155349
    31  H    0.156303
    32  C   -0.189997
    33  H    0.153559
    34  H    0.162945
    35  C   -0.104699
    36  H    0.153055
    37  H    0.127255
    38  C   -0.132518
    39  H    0.136799
    40  H    0.192440
    41  C   -0.427141
    42  H    0.125620
    43  H    0.138482
    44  H    0.158771
    45  C   -0.325634
    46  H    0.141356
    47  H    0.124875
    48  H    0.077968
    49  C    0.056215
    50  C   -0.150411
    51  C   -0.189137
    52  C   -0.140643
    53  H    0.174500
    54  C   -0.131295
    55  H    0.164525
    56  C   -0.134174
    57  H    0.138818
    58  H    0.138938
    59  H    0.138546
    60  C    0.058201
    61  C   -0.204543
    62  C   -0.145115
    63  C   -0.133529
    64  H    0.153229
    65  C   -0.155070
    66  H    0.145981
    67  C   -0.133779
    68  H    0.137004
    69  H    0.140249
    70  H    0.138813
 Sum of Mulliken charges =  -0.00000
 Mulliken charges with hydrogens summed into heavy atoms:
               1
     1  C   -0.018744
     2  C    0.061445
     3  C    0.034618
     4  C   -0.050207
     5  C   -0.011379
     6  C   -0.043590
    12  C    0.147667
    14  C    0.074742
    16  C    0.017652
    17  C    0.030063
    18  C    0.030480
    19  C   -0.020867
    21  C   -0.029992
    23  C   -0.002569
    27  N   -0.481584
    28  N   -0.431040
    29  C    0.112847
    32  C    0.126508
    35  C    0.175610
    38  C    0.196721
    41  C   -0.004268
    45  C    0.018564
    49  C    0.056215
    50  C    0.024089
    51  C   -0.024612
    52  C   -0.001826
    54  C    0.007643
    56  C    0.004371
    60  C    0.058201
    61  C   -0.051315
    62  C    0.000866
    63  C    0.003475
    65  C   -0.014820
    67  C    0.005034
 Electronic spatial extent (au):  <R**2>=          12130.4406
 Charge=              0.0000 electrons
 Dipole moment (field-independent basis, Debye):
    X=             -0.3468    Y=              0.1219    Z=              0.8468  Tot=              0.9232
 Quadrupole moment (field-independent basis, Debye-Ang):
   XX=           -193.1513   YY=           -197.6476   ZZ=           -201.4525
   XY=             -5.4843   XZ=             -0.3060   YZ=              6.8363
 Traceless Quadrupole moment (field-independent basis, Debye-Ang):
   XX=              4.2658   YY=             -0.2304   ZZ=             -4.0354
   XY=             -5.4843   XZ=             -0.3060   YZ=              6.8363
 Octapole moment (field-independent basis, Debye-Ang**2):
  XXX=             -4.8692  YYY=            -24.5716  ZZZ=              8.6630  XYY=             -0.5380
  XXY=            -23.5898  XXZ=             46.9915  XZZ=              4.6760  YZZ=             -9.8557
  YYZ=             -6.8984  XYZ=             -8.6851
 Hexadecapole moment (field-independent basis, Debye-Ang**3):
 XXXX=          -9142.2839 YYYY=          -4401.0272 ZZZZ=          -3234.4053 XXXY=           -172.8025
 XXXZ=            -62.8210 YYYX=             -8.2363 YYYZ=             92.3386 ZZZX=            -18.9084
 ZZZY=             -8.2293 XXYY=          -2151.3864 XXZZ=          -1996.3674 YYZZ=          -1264.8720
 XXYZ=             17.8588 YYXZ=             31.2275 ZZXY=             37.5494
 N-N= 3.838079682153D+03 E-N=-1.080972244150D+04  KE= 1.344977434236D+03
 D1PCM: PCM CHGder 1st derivatives, ID1Alg=3 FixD1E=F DoIter=F DoCFld=F I1PDM=0.
 Calling FoFJK, ICntrl=      2127 FMM=T ISym2X=0 I1Cent= 0 IOpClX= 0 NMat=1 NMatS=1 NMatT=0.
 ***** Axes restored to original set *****
 -------------------------------------------------------------------
 Center     Atomic                   Forces (Hartrees/Bohr)
 Number     Number              X              Y              Z
 -------------------------------------------------------------------
      1        6          -0.019693659    0.038204919    0.039089231
      2        6           0.022723918   -0.004544190    0.020679384
      3        6           0.004241326    0.010492980   -0.002214920
      4        6           0.002777531    0.013681592   -0.000048950
      5        6          -0.005609543    0.016342713   -0.001191254
      6        6          -0.010779663   -0.002061037    0.000235041
      7        1           0.012821136    0.062273792    0.028799820
      8        1          -0.025015721    0.006624855    0.000695116
      9        1          -0.004297392   -0.007638523    0.000231358
     10        1           0.004234940   -0.007374567   -0.000048821
     11        1           0.008175927   -0.000009519    0.000370520
     12        6           0.011771267    0.036443554   -0.033061991
     13        1           0.008778540    0.004279506   -0.003507698
     14        6           0.000432010    0.000471335    0.047427745
     15        1          -0.007267584    0.012671984   -0.008309966
     16        6          -0.006435518   -0.014436784   -0.004016672
     17        6          -0.009575495    0.022181391    0.003003717
     18        6          -0.000281185   -0.009878774    0.006972792
     19        6           0.004235151    0.012312114   -0.001303590
     20        1          -0.016965112    0.011837024    0.032430385
     21        6           0.001087162   -0.003341330    0.015112755
     22        1           0.008726556    0.009225761   -0.003113063
     23        6           0.009957446    0.008058057    0.008633478
     24        1          -0.005166075   -0.006551538    0.003319412
     25        1          -0.000638595    0.001901710   -0.008803923
     26        1          -0.005527822   -0.004661530   -0.005057313
     27        7          -0.031724201    0.044377999    0.030709807
     28        7           0.010473999    0.000921523   -0.008641160
     29        6          -0.004461679    0.022016499    0.038722615
     30        1          -0.014501956   -0.007428964   -0.005521696
     31        1          -0.004419387   -0.011025072    0.009220224
     32        6          -0.002611976    0.029849680   -0.010540461
     33        1           0.011255763    0.000669312    0.012178000
     34        1           0.005992141   -0.015041116   -0.004222864
     35        6          -0.020132649   -0.036553159    0.022375959
     36        1          -0.011989026    0.003296238   -0.009963677
     37        1           0.011107405   -0.005547253   -0.012388112
     38        6           0.003808781   -0.068480137   -0.072527043
     39        1          -0.008441656   -0.024449064   -0.040602522
     40        1          -0.002626390    0.003718233   -0.010408300
     41        6          -0.000556074    0.013929936    0.011207507
     42        1          -0.016693399    0.000517582   -0.008405499
     43        1           0.008278763    0.000277048   -0.016871146
     44        1          -0.006818992   -0.013136214   -0.005601834
     45        6           0.027049128   -0.009189488   -0.030101837
     46        1           0.014084753   -0.009063672   -0.001587363
     47        1           0.001744650   -0.014813657   -0.000421490
     48        1           0.008467560   -0.023516057   -0.005604387
     49        6          -0.023232906   -0.033333542   -0.004051952
     50        6          -0.012736978   -0.008898639    0.011553899
     51        6           0.003275649   -0.012332719    0.014226923
     52        6          -0.011749802    0.007710735    0.005780875
     53        1           0.003200159   -0.009598868    0.018572152
     54        6           0.012089318   -0.002579693    0.009320136
     55        1          -0.007795745    0.002992372    0.002320027
     56        6          -0.002264873    0.008202938    0.012333347
     57        1           0.007273234   -0.005301988   -0.001992654
     58        1          -0.006704470    0.000975673   -0.006042228
     59        1           0.000422397   -0.004247372   -0.008207339
     60        6           0.027817629   -0.036456177   -0.012484169
     61        6           0.030553043   -0.014048215   -0.016281101
     62        6          -0.001483422   -0.005067474   -0.015328401
     63        6           0.021238070    0.005065500   -0.006244714
     64        1          -0.006806359    0.000719748   -0.008587723
     65        6          -0.009871680    0.004018431   -0.010401404
     66        1           0.016258699    0.014588214   -0.004234962
     67        6           0.002447449    0.014282896   -0.008050183
     68        1          -0.006804008   -0.005759275   -0.001638519
     69        1           0.005899351   -0.001487154    0.006768659
     70        1          -0.001019862   -0.007281080    0.005342017
 -------------------------------------------------------------------
 Cartesian Forces:  Max     0.072527043 RMS     0.016450501

 GradGradGradGradGradGradGradGradGradGradGradGradGradGradGradGradGradGrad
 Berny optimization.
 FormGI is forming the generalized inverse of G from B-inverse, IUseBI=4.
 Internal  Forces:  Max     0.269335560 RMS     0.041532282
 Search for a local minimum.
 Step number   1 out of a maximum of  392
 All quantities printed in internal units (Hartrees-Bohrs-Radians)
 Mixed Optimization -- RFO/linear search
 Second derivative matrix not updated -- first step.
 ITU=  0
     Eigenvalues ---    0.00237   0.00237   0.00237   0.00237   0.00237
     Eigenvalues ---    0.00237   0.00237   0.00766   0.00766   0.00766
     Eigenvalues ---    0.00766   0.00766   0.00766   0.01388   0.01388
     Eigenvalues ---    0.01388   0.01388   0.02152   0.02152   0.02152
     Eigenvalues ---    0.02152   0.02153   0.02153   0.02153   0.02153
     Eigenvalues ---    0.02154   0.02154   0.02154   0.02154   0.02155
     Eigenvalues ---    0.02155   0.02155   0.02155   0.02155   0.02155
     Eigenvalues ---    0.02155   0.02155   0.02155   0.02155   0.02155
     Eigenvalues ---    0.02155   0.02156   0.02156   0.02156   0.02156
     Eigenvalues ---    0.02157   0.02157   0.02157   0.02157   0.03189
     Eigenvalues ---    0.03189   0.04502   0.04502   0.04828   0.04828
     Eigenvalues ---    0.05056   0.05056   0.05269   0.05269   0.05496
     Eigenvalues ---    0.05496   0.05720   0.05720   0.05720   0.05720
     Eigenvalues ---    0.06194   0.06194   0.06518   0.06518   0.08860
     Eigenvalues ---    0.08860   0.09364   0.09364   0.12453   0.12453
     Eigenvalues ---    0.12902   0.12902   0.16000   0.16000   0.16000
     Eigenvalues ---    0.16000   0.16000   0.16000   0.16000   0.16000
     Eigenvalues ---    0.16000   0.16000   0.16000   0.16000   0.16000
     Eigenvalues ---    0.16000   0.16000   0.16000   0.16000   0.16000
     Eigenvalues ---    0.16000   0.16000   0.16000   0.16000   0.16000
     Eigenvalues ---    0.16000   0.16000   0.16000   0.16276   0.16276
     Eigenvalues ---    0.16276   0.16276   0.16855   0.16855   0.17980
     Eigenvalues ---    0.17980   0.21985   0.21985   0.22000   0.22000
     Eigenvalues ---    0.22000   0.22000   0.22000   0.22000   0.22000
     Eigenvalues ---    0.22000   0.22022   0.22022   0.23486   0.23486
     Eigenvalues ---    0.23486   0.23486   0.25000   0.25000   0.25000
     Eigenvalues ---    0.25000   0.28519   0.28519   0.28519   0.28519
     Eigenvalues ---    0.28519   0.28519   0.28519   0.33709   0.33709
     Eigenvalues ---    0.33709   0.33709   0.33718   0.33718   0.33718
     Eigenvalues ---    0.33718   0.33718   0.33718   0.33718   0.33718
     Eigenvalues ---    0.33720   0.33720   0.33720   0.33725   0.33726
     Eigenvalues ---    0.33726   0.33726   0.33726   0.35740   0.35740
     Eigenvalues ---    0.35740   0.35740   0.35740   0.35740   0.37230
     Eigenvalues ---    0.37230   0.37230   0.37230   0.37230   0.37230
     Eigenvalues ---    0.37230   0.37230   0.37230   0.37230   0.37230
     Eigenvalues ---    0.37230   0.37230   0.37230   0.37230   0.37230
     Eigenvalues ---    0.42107   0.42121   0.42121   0.42121   0.42300
     Eigenvalues ---    0.42300   0.42300   0.42314   0.46412   0.46412
     Eigenvalues ---    0.46412   0.46412   0.46453   0.46453   0.46453
     Eigenvalues ---    0.46453   0.46466   0.46466   0.46466   0.46466
     Eigenvalues ---    0.46497   0.46497   0.46497   0.46497
 RFO step:  Lambda=-7.27403368D-01 EMin= 2.36824122D-03
 Linear search not attempted -- first point.
 Maximum step size (   0.300) exceeded in Quadratic search.
    -- Step size scaled by   0.416
 Iteration  1 RMS(Cart)=  0.23769407 RMS(Int)=  0.00385710
 Iteration  2 RMS(Cart)=  0.01451049 RMS(Int)=  0.00030941
 Iteration  3 RMS(Cart)=  0.00008507 RMS(Int)=  0.00030885
 Iteration  4 RMS(Cart)=  0.00000006 RMS(Int)=  0.00030885
 Variable       Old X    -DE/DX   Delta X   Delta X   Delta X     New X
                                 (Linear)    (Quad)   (Total)
    R1        2.63647   0.02864   0.00000   0.01017   0.01021   2.64668
    R2        2.63584   0.00656   0.00000   0.00230   0.00230   2.63814
    R3        2.07796  -0.06033   0.00000  -0.02356  -0.02356   2.05440
    R4        2.63562   0.02810   0.00000   0.00997   0.01001   2.64563
    R5        2.91018   0.11424   0.00000   0.04691   0.04691   2.95709
    R6        2.63697   0.00740   0.00000   0.00257   0.00257   2.63955
    R7        2.07809  -0.02501   0.00000  -0.00977  -0.00977   2.06832
    R8        2.63584  -0.01779   0.00000  -0.00639  -0.00642   2.62942
    R9        2.07809  -0.00876   0.00000  -0.00342  -0.00342   2.07467
   R10        2.63643  -0.01211   0.00000  -0.00440  -0.00443   2.63199
   R11        2.07825  -0.00850   0.00000  -0.00332  -0.00332   2.07493
   R12        2.07795  -0.00818   0.00000  -0.00319  -0.00319   2.07476
   R13        2.02201  -0.00323   0.00000  -0.00122  -0.00122   2.02079
   R14        2.91018   0.10037   0.00000   0.04122   0.04122   2.95139
   R15        2.77790   0.13657   0.00000   0.05235   0.05235   2.83025
   R16        2.02201   0.01429   0.00000   0.00540   0.00540   2.02741
   R17        2.91018   0.02939   0.00000   0.01207   0.01207   2.92225
   R18        2.77790   0.17490   0.00000   0.06704   0.06704   2.84494
   R19        2.63647   0.00432   0.00000   0.00154   0.00154   2.63801
   R20        2.63584   0.01454   0.00000   0.00511   0.00511   2.64096
   R21        2.63562   0.00805   0.00000   0.00280   0.00280   2.63843
   R22        2.07805  -0.02846   0.00000  -0.01112  -0.01112   2.06693
   R23        2.63643   0.00544   0.00000   0.00191   0.00191   2.63834
   R24        2.07795  -0.01283   0.00000  -0.00501  -0.00501   2.07294
   R25        2.63697  -0.00062   0.00000  -0.00025  -0.00026   2.63672
   R26        2.07809  -0.00897   0.00000  -0.00350  -0.00350   2.07459
   R27        2.63584  -0.00143   0.00000  -0.00053  -0.00053   2.63530
   R28        2.07825  -0.00903   0.00000  -0.00353  -0.00353   2.07472
   R29        2.07809  -0.00882   0.00000  -0.00345  -0.00345   2.07465
   R30        2.77790   0.12293   0.00000   0.04712   0.04712   2.82502
   R31        2.77790   0.05690   0.00000   0.02181   0.02181   2.79971
   R32        2.77790   0.10568   0.00000   0.04051   0.04051   2.81841
   R33        2.77790   0.05630   0.00000   0.02158   0.02158   2.79948
   R34        2.02201   0.01677   0.00000   0.00634   0.00634   2.02835
   R35        2.02201   0.00774   0.00000   0.00293   0.00293   2.02493
   R36        2.91018   0.02384   0.00000   0.00979   0.00979   2.91997
   R37        2.02201   0.01634   0.00000   0.00618   0.00618   2.02819
   R38        2.02201   0.01610   0.00000   0.00609   0.00609   2.02810
   R39        2.91018   0.02285   0.00000   0.00938   0.00938   2.91956
   R40        2.02201   0.01374   0.00000   0.00520   0.00520   2.02720
   R41        2.02201   0.01742   0.00000   0.00659   0.00659   2.02859
   R42        2.91018  -0.00338   0.00000  -0.00139  -0.00139   2.90879
   R43        2.02201  -0.01802   0.00000  -0.00681  -0.00681   2.01519
   R44        2.02201   0.00559   0.00000   0.00211   0.00211   2.02412
   R45        2.91018   0.01799   0.00000   0.00739   0.00739   2.91756
   R46        2.02201   0.01815   0.00000   0.00686   0.00686   2.02887
   R47        2.02201   0.01774   0.00000   0.00671   0.00671   2.02871
   R48        2.02201   0.00987   0.00000   0.00373   0.00373   2.02574
   R49        2.02201  -0.00132   0.00000  -0.00050  -0.00050   2.02151
   R50        2.02201  -0.00374   0.00000  -0.00142  -0.00142   2.02059
   R51        2.02201   0.02545   0.00000   0.00962   0.00962   2.03163
   R52        2.63647   0.01238   0.00000   0.00438   0.00438   2.64085
   R53        2.63584   0.01571   0.00000   0.00554   0.00554   2.64138
   R54        2.63562   0.00750   0.00000   0.00262   0.00262   2.63824
   R55        2.07805  -0.01569   0.00000  -0.00613  -0.00613   2.07192
   R56        2.63643   0.00467   0.00000   0.00163   0.00163   2.63806
   R57        2.07795  -0.00840   0.00000  -0.00328  -0.00328   2.07467
   R58        2.63697   0.00014   0.00000  -0.00001  -0.00001   2.63697
   R59        2.07809  -0.00922   0.00000  -0.00360  -0.00360   2.07449
   R60        2.63584   0.00197   0.00000   0.00063   0.00063   2.63646
   R61        2.07825  -0.00908   0.00000  -0.00354  -0.00354   2.07470
   R62        2.07809  -0.00925   0.00000  -0.00361  -0.00361   2.07448
   R63        2.63647   0.01567   0.00000   0.00551   0.00552   2.64199
   R64        2.63584   0.01425   0.00000   0.00503   0.00504   2.64088
   R65        2.63562   0.00679   0.00000   0.00235   0.00235   2.63797
   R66        2.07805  -0.01090   0.00000  -0.00426  -0.00426   2.07379
   R67        2.63643   0.00972   0.00000   0.00341   0.00341   2.63984
   R68        2.07795  -0.02085   0.00000  -0.00814  -0.00814   2.06981
   R69        2.63697   0.00019   0.00000   0.00000  -0.00001   2.63697
   R70        2.07809  -0.00906   0.00000  -0.00354  -0.00354   2.07455
   R71        2.63584   0.00386   0.00000   0.00130   0.00129   2.63713
   R72        2.07825  -0.00910   0.00000  -0.00355  -0.00355   2.07469
   R73        2.07809  -0.00908   0.00000  -0.00355  -0.00355   2.07455
    A1        2.09437   0.03419   0.00000   0.01508   0.01512   2.10948
    A2        2.09435   0.00371   0.00000   0.00221   0.00218   2.09653
    A3        2.09447  -0.03790   0.00000  -0.01729  -0.01731   2.07716
    A4        2.09455  -0.07440   0.00000  -0.03138  -0.03132   2.06323
    A5        2.09406   0.14666   0.00000   0.06226   0.06220   2.15626
    A6        2.09458  -0.07228   0.00000  -0.03089  -0.03094   2.06364
    A7        2.09429   0.04088   0.00000   0.01798   0.01802   2.11231
    A8        2.09462  -0.01356   0.00000  -0.00577  -0.00578   2.08883
    A9        2.09427  -0.02733   0.00000  -0.01222  -0.01224   2.08204
   A10        2.09429   0.00486   0.00000   0.00173   0.00169   2.09598
   A11        2.09407  -0.00254   0.00000  -0.00091  -0.00089   2.09317
   A12        2.09483  -0.00233   0.00000  -0.00081  -0.00080   2.09403
   A13        2.09448  -0.01609   0.00000  -0.00768  -0.00775   2.08673
   A14        2.09459   0.00807   0.00000   0.00385   0.00388   2.09848
   A15        2.09411   0.00802   0.00000   0.00383   0.00386   2.09798
   A16        2.09440   0.01054   0.00000   0.00426   0.00422   2.09862
   A17        2.09453  -0.00528   0.00000  -0.00213  -0.00212   2.09242
   A18        2.09426  -0.00526   0.00000  -0.00212  -0.00211   2.09215
   A19        1.91063  -0.03566   0.00000  -0.01868  -0.01931   1.89133
   A20        1.91063  -0.09866   0.00000  -0.04508  -0.04536   1.86527
   A21        1.91063   0.15344   0.00000   0.07335   0.07350   1.98413
   A22        1.91063   0.01859   0.00000   0.00536   0.00466   1.91529
   A23        1.91063  -0.02405   0.00000  -0.00987  -0.00989   1.90074
   A24        1.91063  -0.01366   0.00000  -0.00508  -0.00435   1.90629
   A25        1.91063  -0.02889   0.00000  -0.01445  -0.01498   1.89565
   A26        1.91063  -0.12849   0.00000  -0.05970  -0.05961   1.85102
   A27        1.91063   0.14792   0.00000   0.06830   0.06821   1.97884
   A28        1.91063   0.04814   0.00000   0.02061   0.01980   1.93043
   A29        1.91063  -0.01815   0.00000  -0.00546  -0.00564   1.90499
   A30        1.91063  -0.02053   0.00000  -0.00931  -0.00804   1.90259
   A31        2.09435   0.04859   0.00000   0.02065   0.02064   2.11499
   A32        2.09447  -0.02546   0.00000  -0.01085  -0.01086   2.08361
   A33        2.09437  -0.02314   0.00000  -0.00981  -0.00981   2.08456
   A34        2.09455   0.01117   0.00000   0.00488   0.00488   2.09943
   A35        2.09406  -0.00464   0.00000  -0.00199  -0.00201   2.09205
   A36        2.09458  -0.00652   0.00000  -0.00287  -0.00289   2.09169
   A37        2.09440   0.01376   0.00000   0.00605   0.00605   2.10045
   A38        2.09453  -0.00445   0.00000  -0.00188  -0.00189   2.09265
   A39        2.09426  -0.00931   0.00000  -0.00416  -0.00416   2.09009
[...]
 0.00000625,0.00000014,0.00000034,0.00000772,-0.00000342,0.00000041,-0.
 00000189,-0.00000016,-0.00000041,0.00000038,-0.00000054,0.00000031,-0.
 00000102,-0.00000091,-0.00000126,-0.00000005,-0.00000109,0.00000084,0.
 00000159,0.00000015,-0.00000053,0.00000167,-0.00000098,0.00000027,0.00
 000029,-0.00000003,0.00000047,0.00000007,-0.00000007,0.00000121,-0.000
 00035,-0.00000123,0.00000085,-0.00001083,0.00000621,-0.00000208,0.0000
 0149,-0.00000072,0.00003653,0.00004199,0.00003279,0.00000922,-0.000012
 08,-0.00000467,0.00001228,0.00000828,-0.00000263,-0.00000071,-0.000001
 77,-0.00000292,-0.00000150,-0.00000816,0.00000233,-0.00000232,0.000000
 84,0.00000127,0.00000189,0.00000025,-0.00000121,-0.00000116,0.00000520
 ,0.00000310,0.00000366,0.00000109,0.00000137,-0.00000533,-0.00000242,0
 .00000021,0.00000090,-0.00000171,0.00000020,0.00000050,-0.00000394,-0.
 00000412,0.00000053,-0.00000281,-0.00000052,0.00000438,-0.00000053,-0.
 00001454,0.00031938,-0.00008744,-0.00007016,0.00000197,-0.00000579,0.0
 0000906,-0.00000065,-0.00000050,-0.00000069,-0.00000065,-0.00000062,0.
 00000223,0.00008147,-0.00037524,0.00032414,0.00002664,-0.00003979,-0.0
 0000695,0.00001282,0.00000016,0.00000916,0.00001841,-0.00005378,-0.000
 09622,-0.00000039,-0.00000238,0.00000315,-0.00006049,-0.00001378,0.000
 01830,-0.00000047,0.00000204,0.00000371,0.00000131,-0.00000090,-0.0000
 0155,-0.00000109,0.00000145,-0.00000021,-0.00000201,-0.00000033,0.0000
 0161,-0.00000010,0.00000005,-0.00000016,0.00000112,-0.00000050,-0.0000
 0176,0.00000046,0.00000090,0.00000004,-0.00001948,-0.00000404,0.000004
 07,0.00000210,-0.00000771,-0.00000034,-0.00001064,0.00000205,-0.000006
 33,-0.00000404,0.00000310,0.00001212,-0.00000239,0.00000024,0.00000289
 ,0.00000062,-0.00000013,-0.00000150,0.00000782,0.00000095,-0.00000335,
 -0.00000077,-0.00000020,0.00000023,-0.00000176,0.00000004,-0.00000069,
 -0.00000068,0.00000014,0.00000154,-0.00000134,-0.00000102,0.00000284,-
 0.00000035,0.00000017,-0.00000175,-0.00000081,0.00000004,0.00000003,0.
 00000053,-0.00000003,-0.00000284,0.00000016,0.,0.00000003,0.00449109,0
 .00232546,0.00423640,0.00809180,-0.01202051,0.00434082,0.00022221,0.00
 001967,-0.00049844,-0.00673415,0.02883335,-0.04676009,-0.00197585,-0.0
 0127419,-0.00264204,0.00399715,0.00395039,0.00371650,-0.00051745,-0.00
 044286,-0.00089444,-0.00961914,0.01452137,0.00200397,0.00355462,-0.034
 26066,0.03878215,-0.00000388,0.00000835,0.00000672,-0.00000320,-0.0000
 1832,-0.00000592,-0.00000162,0.00000645,0.00000919,0.00000060,0.000002
 17,0.00000083,-0.00000182,0.00000373,-0.00000045,0.00000192,-0.0000008
 5,0.00000059,0.00000038,-0.00000042,-0.00000290,-0.00000002,-0.0000044
 6,-0.00000199,-0.00000289,0.00000276,0.00000006,-0.00000122,0.00000072
 ,0.00000077,-0.00000073,0.00000021,0.00000089,0.00000640,0.00000473,0.
 00002402,0.00000037,0.00000030,-0.00001960,0.00001623,-0.00017939,-0.0
 0009676,-0.00002905,0.00002434,-0.00000226,-0.00001811,-0.00003441,0.0
 0000310,0.00001835,0.00000032,0.00000532,-0.00000360,0.00001870,0.0000
 1091,0.00002614,-0.00001123,-0.00001560,-0.00002934,-0.00000143,-0.000
 00398,-0.00000471,-0.00000606,0.00000095,0.00000623,0.00000396,-0.0000
 2130,0.00002806,0.00001813,0.00000522,-0.00001186,0.00003348,-0.000003
 72,-0.00000018,0.00000035,-0.00000457,-0.00000199,0.00000634,0.0000049
 9,-0.00002516,0.00002090,0.00000448,-0.00015485,0.00019636,-0.00019003
 ,0.00003454,-0.00001287,0.00000082,-0.00000302,-0.00000162,0.00000093,
 -0.00001177,0.00001090,-0.00000999,0.00041586,-0.00143915,0.00052594,0
 .00000219,0.00002209,0.00002568,-0.00046640,-0.00006436,0.00024404,-0.
 00002928,0.00011187,0.00020246,-0.00003877,0.00000251,-0.00002287,0.00
 007023,-0.00002125,-0.00002826,0.00002017,-0.00000735,0.00001051,-0.00
 000904,0.00000149,0.00000019,-0.00000031,0.00000272,-0.00000132,-0.000
 00483,0.00000135,-0.00000153,-0.00000466,0.00000033,-0.00000131,0.0000
 0229,-0.00000117,0.00000275,0.00000217,0.00000104,-0.00000100,0.000032
 45,-0.00002467,-0.00003069,0.00000851,0.00000891,0.00000226,-0.0000143
 3,-0.00000780,-0.00001887,-0.00001254,0.00002699,0.00000952,-0.0000112
 6,0.00000494,-0.00000908,0.00000059,0.00000003,0.00000783,0.00001010,-
 0.00000070,0.00000193,-0.00000190,-0.00000022,0.00000076,-0.00000045,-
 0.00000034,-0.00000142,-0.00000367,0.00000043,-0.00000194,-0.00000319,
 0.00000150,-0.00000360,-0.00000163,0.00000011,0.00000123,-0.00000223,-
 0.00000030,0.00000118,0.00000113,-0.00000027,0.00000015,-0.00000104,-0
 .00000018,0.00000153,-0.00339254,0.00264687,0.00415068,-0.00073686,0.0
 0070666,-0.00008475,-0.00732252,-0.02524017,0.01550414,-0.00050652,0.0
 0384581,0.00187773,-0.00011025,-0.00031735,-0.00042704,-0.09529433,-0.
 07822539,0.05873875,0.00046315,-0.00038843,-0.00206348,0.00951233,0.01
 660693,-0.00972997,0.00037884,0.00078165,-0.00035450,0.09699426,-0.000
 00581,0.00000646,0.00000386,-0.00000415,-0.00001755,-0.00000167,-0.000
 00402,0.00000348,0.00000368,0.00000088,-0.00000118,0.00000140,-0.00000
 104,0.00000175,0.00000060,0.00000077,-0.00000009,-0.00000028,0.0000015
 9,0.00000050,-0.00000208,0.00000378,-0.00000316,0.00000066,-0.00000131
 ,0.00000252,-0.00000070,-0.00000114,0.00000173,0.00000129,-0.00000033,
 0.00000032,0.00000180,0.00001006,0.00001195,0.00000420,0.00000123,0.00
 000140,-0.00001022,0.00004088,-0.00009103,-0.00006384,-0.00001781,0.00
 001443,-0.00000143,-0.00000416,-0.00000318,-0.00000679,-0.00000102,0.0
 0001552,0.00002690,-0.00000249,0.00001285,0.00000290,-0.00001125,-0.00
 000607,0.00000475,-0.00000046,-0.00000528,-0.00000080,-0.00000605,-0.0
 0000207,-0.00000678,0.00000517,-0.00000072,-0.00000862,-0.00000332,-0.
 00000025,-0.00000338,0.00000478,0.00000315,-0.00000238,0.00000203,-0.0
 0000107,0.00000271,0.00000341,0.00000321,-0.00000039,-0.00002815,0.000
 00565,0.00000758,-0.00024737,0.00004961,-0.00006043,0.00001913,-0.0000
 0235,-0.00000424,-0.00000004,-0.00000270,0.00000144,-0.00000903,0.0000
 0421,-0.00000506,0.00042551,-0.00002206,-0.00001211,-0.00006960,0.0000
 0865,0.00002169,-0.00003363,-0.00001087,-0.00003165,-0.00001656,0.0000
 7713,0.00013869,-0.00002441,0.00000619,-0.00000889,0.00005672,0.000001
 11,-0.00000056,0.00002003,-0.00000716,0.00000700,-0.00000833,0.0000017
 0,0.00000103,0.00000074,0.00000082,0.,-0.00000356,0.00000098,-0.000002
 05,-0.00000421,0.00000077,-0.00000141,0.00000177,0.00000002,0.00000317
 ,0.00000147,-0.00000044,-0.00000049,0.00003034,-0.00001851,-0.00001284
 ,0.00000011,0.00000463,0.00000126,-0.00001186,-0.00000901,-0.00001562,
 -0.00000366,0.00002175,0.00000233,-0.00000585,0.00000163,-0.00000459,0
 .00000032,-0.00000021,0.00000540,0.00000802,-0.00000059,0.00000169,-0.
 00000071,-0.00000025,0.00000065,-0.00000034,-0.00000029,-0.00000123,-0
 .00000320,0.00000040,-0.00000178,-0.00000319,0.00000090,-0.00000142,-0
 .00000135,-0.00000002,0.00000038,-0.00000228,-0.00000012,0.00000075,0.
 00000137,-0.00000013,-0.00000032,-0.00000094,-0.00000003,0.00000162,0.
 00180077,0.00214477,0.00137444,0.00060939,0.00027218,-0.00051588,0.004
 09963,0.00479981,-0.00244600,0.00471780,-0.00174099,0.00143532,-0.0003
 2762,-0.00020299,-0.00031354,-0.07809757,-0.22982103,0.11593945,-0.001
 02197,0.00025058,-0.00138074,-0.01306231,-0.01640910,0.01434525,-0.000
 53463,-0.00092269,0.00074721,0.08214074,0.24104241,0.00000148,-0.00000
 816,-0.00000537,0.00000142,0.00001344,0.00000251,-0.00000022,-0.000005
 63,-0.00000256,-0.00000096,-0.00000200,-0.00000163,0.00000072,-0.00000
 338,-0.00000020,-0.00000238,0.00000009,-0.00000093,0.00000083,0.000002
 25,0.00000193,0.00000082,0.00000400,0.00000066,0.00000221,-0.00000088,
 0.00000063,0.00000192,-0.00000050,-0.00000070,0.00000169,0.00000036,-0
 .00000171,-0.00000482,-0.00000028,-0.00001507,0.00000093,0.00000169,0.
 00000986,-0.00000635,0.00012426,0.00007486,0.00000992,-0.00001681,-0.0
 0000280,0.00001937,0.00000525,0.00000219,0.00001116,-0.00000510,-0.000
 00403,0.00000307,-0.00000200,-0.00000429,-0.00001243,0.00000961,0.0000
 2337,-0.00000257,0.00000290,-0.00000546,-0.00001489,0.00001344,-0.0000
 0316,-0.00000104,-0.00000253,0.00001201,-0.00003500,-0.00000122,0.0000
 0047,0.00001322,-0.00001463,0.00000692,0.00000587,-0.00000457,-0.00001
 176,0.00000580,-0.00002393,-0.00001055,0.00001706,-0.00001828,-0.00001
 599,-0.00003413,-0.00010970,-0.00000735,-0.00002226,0.00000733,0.00000
 541,-0.00000069,-0.00000105,-0.00000128,0.00000817,-0.00000444,0.00000
 631,-0.00018133,0.00056494,-0.00008591,0.00005638,0.00000343,-0.000040
 23,0.00017704,-0.00004803,-0.00022832,-0.00006643,-0.00001464,0.000098
 22,0.00002117,-0.00000362,0.00001029,0.00006070,0.00003427,-0.00001610
 ,-0.00001285,0.00000396,0.00000027,0.00000645,-0.00000147,-0.00000296,
 -0.00000014,0.00000056,0.00000203,-0.00000047,-0.00000002,0.00000389,0
 .00000235,-0.00000098,0.00000080,0.00000041,-0.00000130,-0.00000445,-0
 .00000095,0.00000026,-0.00000008,0.00001658,-0.00000170,-0.00001849,0.
 00000750,0.00000863,-0.00000408,0.00000047,-0.00000099,0.00000735,-0.0
 0000805,-0.00001842,0.00000012,0.00000578,-0.00000381,0.00000664,0.000
 00068,-0.00000055,-0.00000536,-0.00000542,-0.00000107,-0.00000293,0.00
 000064,-0.00000013,-0.00000074,-0.00000070,0.00000072,0.00000064,0.000
 00297,-0.00000131,0.00000194,0.00000188,0.00000075,0.00000338,0.000001
 03,-0.00000046,-0.00000145,0.00000152,0.00000047,-0.00000055,-0.000001
 10,0.00000123,-0.00000113,0.00000110,0.00000058,-0.00000148,0.00426725
 ,0.00098907,0.00520275,-0.00007516,-0.00051158,-0.00005899,0.00349089,
 0.01134724,-0.00274531,0.00151023,0.00180777,0.00558547,-0.00043676,-0
 .00031053,-0.00098985,0.05874193,0.11589297,-0.11422002,-0.00171754,-0
 .00172543,-0.00274604,0.00257469,0.00065350,0.00197202,0.00018713,0.00
 015617,0.00013987,-0.06680426,-0.12748532,0.11070701,-0.00000827,0.000
 00842,0.00000374,-0.00000554,-0.00002315,-0.00000046,-0.00000589,0.000
 00402,0.00000216,0.00000122,-0.00000256,0.00000199,-0.00000112,0.00000
 160,0.00000152,0.00000058,0.00000027,-0.00000036,0.00000248,0.00000066
 ,-0.00000234,0.00000587,-0.00000381,0.00000192,-0.00000106,0.00000284,
 -0.00000115,-0.00000140,0.00000253,0.00000178,-0.00000043,0.00000063,0
 .00000290,0.00002416,0.00001477,0.00000122,0.00000004,-0.00000052,-0.0
 0000836,0.00006306,-0.00007550,-0.00009471,-0.00001917,0.00001887,-0.0
 0000024,-0.00000758,0.00000886,-0.00000350,-0.00000722,0.00002105,0.00
 003224,-0.00000891,0.00001791,-0.00000958,-0.00001854,-0.00001483,0.00
 000986,0.00000901,-0.00000928,0.00000120,-0.00000852,-0.00000330,-0.00
 000925,0.00000676,-0.00000343,-0.00000574,-0.00000500,-0.00000602,-0.0
 0000266,0.00000321,0.00000365,-0.00000535,0.00000402,-0.00000124,0.000
 00420,0.00000508,0.00000583,0.00000171,-0.00003799,-0.00000067,0.00001
 330,-0.00025966,0.00001706,0.00003687,0.00002106,0.00000209,-0.0000079
 0,-0.00000130,-0.00000363,0.00000151,-0.00000924,0.00000547,-0.0000059
 4,0.00003108,-0.00019242,-0.00044204,0.00003963,-0.00001138,-0.0000167
 3,-0.00004223,-0.00004435,0.00003969,0.00005602,0.00008511,0.00006281,
 -0.00002750,0.00000555,-0.00000852,0.00001348,-0.00000039,0.00001877,0
 .00002605,-0.00000827,0.00000683,-0.00001097,0.00000229,0.00000196,0.0
 0000130,-0.00000082,0.00000040,-0.00000376,0.00000126,-0.00000348,-0.0
 0000472,0.00000111,-0.00000192,0.00000200,0.00000168,0.00000415,0.0000
 0098,-0.00000172,0.00000053,0.00001072,-0.00001927,0.00000280,-0.00000
 423,-0.00000487,0.00000216,-0.00001362,-0.00000705,-0.00002085,0.00000
 330,0.00002247,0.00000963,-0.00000662,0.00000062,-0.00000597,0.,-0.000
 00087,0.00000710,0.00000876,-0.00000185,0.00000303,-0.00000074,-0.0000
 0058,0.00000077,-0.00000003,0.00000013,-0.00000141,-0.00000415,0.00000
 002,-0.00000280,-0.00000359,0.00000207,-0.00000232,-0.00000165,-0.0000
 0046,0.00000096,-0.00000281,0.00000017,0.00000095,0.00000180,0.0000003
 5,0.00000032,-0.00000131,0.00000031,0.00000219,0.00050449,0.00002306,-
 0.00050644,0.00223260,-0.00103721,0.00282632,0.00143248,0.00383892,0.0
 0108707,-0.00693952,0.00426999,0.00294799,-0.00045913,0.00014988,0.000
 29740,-0.01154046,-0.00286594,0.00803465,-0.00061899,-0.00009040,0.000
 43292,-0.29095883,0.01714317,0.11136627,0.00014389,-0.00100372,-0.0015
 8354,0.00022408,-0.00042171,-0.00179352,0.30617248,0.00000126,-0.00000
 306,-0.00000004,0.00000172,0.00000573,-0.00000088,0.00000048,-0.000000
 73,0.00000042,-0.00000060,0.00000048,-0.00000047,0.,-0.00000059,-0.000
 00034,-0.00000063,-0.00000008,-0.00000053,0.00000013,0.00000037,0.0000
 0013,-0.00000071,0.00000079,-0.00000059,0.00000033,-0.00000016,0.00000
 018,0.00000048,-0.00000014,-0.00000028,0.00000058,-0.00000003,-0.00000
 065,0.00000414,-0.00000759,0.00000086,-0.00000137,-0.00000105,0.000001
 12,-0.00004940,0.00001753,-0.00000015,-0.00000458,0.00000572,0.0000026
 8,0.00000235,-0.00002020,0.00000503,0.00001335,-0.00000984,-0.00002253
 ,0.00000364,-0.00000454,0.00001273,0.00001243,0.00001415,-0.00000307,-
 0.00000869,0.00000548,-0.00000293,-0.00000219,0.00000125,0.00000385,0.
 00000027,0.00000072,-0.00000080,-0.00000125,0.00000659,0.00000071,0.00
 000083,-0.00000195,0.00000267,0.00000039,-0.00000170,-0.00000497,-0.00
 000066,-0.00000611,-0.00000291,0.00000448,0.00000256,-0.00000691,0.000
 05446,0.00015498,-0.00003326,0.00000473,-0.00000476,0.00000428,0.00000
 023,0.00000038,-0.00000027,-0.00000127,-0.00000070,0.00000007,-0.00011
 884,-0.00006847,-0.00037633,0.00005000,-0.00001436,-0.00002018,0.00006
 842,0.00000891,-0.00002292,-0.00001963,-0.00002630,-0.00000705,0.00000
 404,0.00000132,-0.00000116,-0.00000588,-0.00000915,-0.00001775,-0.0000
 0157,0.00000193,0.00000109,0.00000095,-0.00000040,-0.00000066,-0.00000
 080,0.00000076,-0.00000021,-0.00000062,-0.00000019,0.00000063,0.000000
 17,0.00000014,0.00000008,0.00000032,-0.00000054,-0.00000067,0.00000037
 ,0.00000047,-0.00000002,0.00001117,-0.00000791,-0.00000099,0.00000140,
 0.00000457,-0.00000206,-0.00000497,0.00000366,-0.00000251,-0.00000097,
 0.00000674,0.00000662,-0.00000184,0.00000114,0.00000012,0.00000027,-0.
 00000013,-0.00000007,0.00000351,0.00000030,-0.00000081,-0.00000047,-0.
 00000020,0.00000015,-0.00000052,0.00000013,-0.00000020,-0.00000076,-0.
 00000017,-0.00000005,-0.00000050,-0.00000049,0.00000016,-0.00000015,-0
 .00000015,-0.00000026,-0.00000023,0.00000013,0.00000009,0.00000015,0.0
 0000024,-0.00000064,-0.00000010,0.00000013,0.00000009,-0.00012941,-0.0
 0102912,0.00024397,-0.00013150,-0.00277006,0.00425018,0.00297769,-0.00
 328567,0.00294553,-0.02545276,0.00469448,0.01126917,-0.00113708,0.0000
 8693,0.00060445,0.02667673,0.00218474,-0.01211610,0.00114187,0.0000480
 2,-0.00046019,0.01728999,-0.05845316,0.00056841,-0.00016192,0.00050970
 ,-0.00183343,-0.00126802,0.00052800,-0.00129467,-0.01982346,0.05743052
 ,0.00000351,-0.00000694,-0.00000304,0.00000309,0.00001288,0.00000115,0
 .00000128,-0.00000316,-0.00000068,-0.00000066,-0.00000029,-0.00000155,
 0.00000056,-0.00000172,-0.00000041,-0.00000166,0.00000029,-0.00000002,
 -0.00000032,0.00000119,0.00000138,-0.00000115,0.00000251,-0.00000076,0
 .00000071,-0.00000084,0.00000062,0.00000130,-0.00000103,-0.00000070,0.
 00000118,-0.00000009,-0.00000207,0.00000327,-0.00001145,-0.00000287,-0
 .00000384,-0.00000169,0.00000785,-0.00003751,0.00008037,0.00002295,0.0
 0000132,-0.00000039,0.00000396,0.00000761,-0.00000558,-0.00000263,0.00
 000436,-0.00000152,-0.00000691,0.00000007,-0.00000820,-0.00000503,-0.0
 0000080,0.00000352,0.00000283,-0.00000454,0.00000287,-0.00000175,0.000
 00168,0.00000053,0.00000616,-0.00000015,0.00000003,0.00000684,-0.00000
 537,0.00000075,-0.00000226,0.00000021,-0.00000016,0.00000151,0.0000000
 9,-0.00000214,-0.00000648,-0.00000079,-0.00000596,-0.00000032,0.000018
 54,-0.00000667,-0.00001664,0.00008254,-0.00001098,0.00002669,-0.000012
 73,-0.00000082,0.00000861,-0.00000148,0.00000029,-0.00000136,0.0000050
 1,-0.00000164,0.00000406,-0.00032126,-0.00036574,-0.00088148,0.0001553
 0,-0.00008673,-0.00008338,-0.00002097,-0.00011416,0.00006637,0.0000071
 4,-0.00000733,-0.00001860,0.00001086,-0.00000453,0.00000688,-0.0000088
 5,0.00000685,-0.00001647,-0.00001130,0.00000472,0.00000107,0.00000538,
 -0.00000175,-0.00000254,-0.00000050,0.00000118,0.00000063,-0.00000053,
 -0.00000047,0.00000353,0.00000183,-0.00000082,0.00000080,0.00000044,-0
 .00000138,-0.00000373,-0.00000041,0.00000115,-0.00000035,-0.00000544,0
 .00001336,-0.00000024,0.00000628,0.00000294,-0.00000380,0.00000270,0.0
 0000004,0.00000616,-0.00000269,-0.00001562,0.00000236,0.00000235,-0.00
 000162,0.00000446,0.00000062,0.00000001,-0.00000406,-0.00000227,0.0000
 0021,-0.00000319,0.,0.00000010,-0.00000051,-0.00000093,0.00000028,0.00
 000032,0.00000245,-0.00000055,0.00000244,0.00000138,-0.00000025,0.0000
 0282,0.00000065,0.00000005,-0.00000131,0.00000114,0.00000010,-0.000000
 35,-0.00000094,0.00000043,-0.00000149,0.00000101,0.00000012,-0.0000013
 3,-0.00064377,0.00027883,-0.00034466,0.00242131,0.00461468,0.00431150,
 0.00164474,0.00260544,0.00527526,0.01520850,-0.00275771,-0.00289569,0.
 00077930,-0.00000636,-0.00003100,-0.00448403,0.00193154,0.00433529,-0.
 00014571,0.00011182,0.00024190,0.11141800,0.00054519,-0.09007833,-0.00
 193434,-0.00142744,-0.00263335,-0.00142409,-0.00167556,-0.00262050,-0.
 12272871,-0.00368495,0.08532545\\0.00000019,0.00000128,0.00000197,0.00
 000246,-0.00000147,0.00000368,0.00000268,-0.00000346,-0.00000246,0.000
 00003,0.00000256,0.00000468,0.00000126,0.00000044,-0.00000236,0.000002
 28,-0.00000031,-0.00000153,0.00000047,-0.00000044,0.00000039,0.0000009
 6,0.00000097,-0.00000040,0.00000148,0.00000125,0.00000025,0.00000170,0
 .00000099,0.00000157,0.00000092,0.00000023,0.00000116,-0.00000157,0.00
 000303,0.00000088,-0.00000135,-0.00000080,0.00000198,0.00001000,-0.000
 00809,-0.00000288,-0.00000142,0.00000153,0.00000228,-0.00000334,0.0000
 0300,0.,-0.00000031,-0.00000095,0.00000187,0.00000266,0.00000033,0.000
 00188,0.00000247,-0.00000076,0.00000174,0.00000125,-0.00000061,0.00000
 058,0.00000057,-0.00000258,0.00000052,0.00000063,-0.00000118,-0.000000
 41,0.00000037,-0.00000159,-0.00000148,0.00000151,0.00000010,0.00000052
 ,0.00000190,-0.00000081,0.00000051,0.00000204,-0.00000042,0.00000107,0
 .00000162,0.00001093,-0.00000407,-0.00000325,0.00000851,-0.00001238,-0
 .00000666,-0.00001448,0.00001368,-0.00000058,0.00000421,-0.00000015,0.
 00000007,0.00000003,-0.00000328,-0.00000423,-0.00000321,-0.00000459,-0
 .00000072,-0.00000083,-0.00000172,-0.00000059,-0.00000340,0.00000159,0
 .00000212,0.00000105,0.00000829,-0.00000166,0.00000144,-0.00000220,-0.
 00000482,-0.00000179,0.00000168,-0.00000671,0.00000100,-0.00000220,0.0
 0000215,0.00000114,-0.00000134,0.00000074,0.00000198,0.00000141,0.0000
 0014,0.00000122,-0.00000043,-0.00000071,0.00000143,0.00000071,-0.00000
 070,0.00000259,0.00000124,-0.00000198,0.00000135,-0.00000110,0.0000012
 5,-0.00000664,0.00000017,-0.00000010,0.00000221,-0.00000074,-0.0000020
 8,0.00000094,-0.00000041,-0.00000191,0.00000150,-0.00000152,0.00000260
 ,0.00000375,-0.00000581,-0.00000195,0.00000060,0.00000057,-0.00000022,
 0.00000004,0.00000185,0.00000060,0.00000094,-0.00000074,-0.00000013,0.
 00000027,-0.00000110,-0.00000017,-0.00000009,-0.00000104,-0.00000025,-
 0.00000019,-0.00000121,-0.00000143,0.00000029,-0.00000116,-0.00000102,
 0.00000107,0.00000002,-0.00000036,-0.00000060,0.00000025,-0.00000017,0
 .00000042,0.00000042,0.00000427,0.00000051,0.00000613,-0.00000269,0.00
 000016,-0.00000379,0.00000057,0.00000227,-0.00000045,-0.00000269,-0.00
 000258,-0.00000184,-0.00000031,-0.00000090,0.00000109,0.00000040,-0.00
 000241,-0.00000106,0.00000341,-0.00000142,0.00000102,-0.00000133,0.000
 00089,0.00000017,-0.00000002,-0.00000190,-0.00000114,0.00000006,-0.000
 00077,0.00000030,-0.00000040,-0.00000375,-0.00000118\\\@
 The archive entry for this job was punched.


 IT TAKES GREATER CHARACTER TO CARRY OFF GOOD FORTUNE THAN BAD.
                     FRENCH PROVERB.
 Job cpu time:       0 days  7 hours 25 minutes 36.0 seconds.
 Elapsed time:       0 days  0 hours 55 minutes 44.3 seconds.
 File lengths (MBytes):  RWF=   1772 Int=      0 D2E=      0 Chk=     34 Scr=      1
 Normal termination of Gaussian 16 at Sat Oct 23 06:04:18 2021.
