 Entering Gaussian System, Link 0=/home/rtong2/g16/g16
 Input=/home/rtong2/g16/100121/benzCH2CCH2NCHCH3-4.gjf
 Output=/home/rtong2/g16/100121/benzCH2CCH2NCHCH3-4.log
 Initial command:
 /home/rtong2/g16/l1.exe "/tmp/Gau-2857.inp" -scrdir="/tmp/"
 Default is to use a total of  16 processors:
                               16 via shared-memory
                                1 via Linda
 Entering Link 1 = /home/rtong2/g16/l1.exe PID=      2859.
  
 Copyright (c) 1988-2019, Gaussian, Inc.  All Rights Reserved.
  
 This is part of the Gaussian(R) 16 program.  It is based on
 the Gaussian(R) 09 system (copyright 2009, Gaussian, Inc.),
 the Gaussian(R) 03 system (copyright 2003, Gaussian, Inc.),
 the Gaussian(R) 98 system (copyright 1998, Gaussian, Inc.),
 the Gaussian(R) 94 system (copyright 1995, Gaussian, Inc.),
 the Gaussian 92(TM) system (copyright 1992, Gaussian, Inc.),
 the Gaussian 90(TM) system (copyright 1990, Gaussian, Inc.),
 the Gaussian 88(TM) system (copyright 1988, Gaussian, Inc.),
 the Gaussian 86(TM) system (copyright 1986, Carnegie Mellon
 University), and the Gaussian 82(TM) system (copyright 1983,
 Carnegie Mellon University). Gaussian is a federally registered
 trademark of Gaussian, Inc.
  
 This software contains proprietary and confidential information,
 including trade secrets, belonging to Gaussian, Inc.
  
 This software is provided under written license and may be
 used, copied, transmitted, or stored only in accord with that
 written license.
  
 The following legend is applicable only to US Government
 contracts under FAR:
  
                    RESTRICTED RIGHTS LEGEND
  
 Use, reproduction and disclosure by the US Government is
 subject to restrictions as set forth in subparagraphs (a)
 and (c) of the Commercial Computer Software - Restricted
 Rights clause in FAR 52.227-19.
  
 Gaussian, Inc.
 340 Quinnipiac St., Bldg. 40, Wallingford CT 06492
  
  
 ---------------------------------------------------------------
 Warning -- This program may not be used in any manner that
 competes with the business of Gaussian, Inc. or will provide
 assistance to any competitor of Gaussian, Inc.  The licensee
 of this program is prohibited from giving any competitor of
 Gaussian, Inc. access to this program.  By using this program,
 the user acknowledges that Gaussian, Inc. is engaged in the
 business of creating and licensing software in the field of
 computational chemistry and represents and warrants to the
 licensee that it is not a competitor of Gaussian, Inc. and that
 it will not use this program in any manner prohibited above.
 ---------------------------------------------------------------
  

 Cite this work as:
 Gaussian 16, Revision C.01,
 M. J. Frisch, G. W. Trucks, H. B. Schlegel, G. E. Scuseria, 
 M. A. Robb, J. R. Cheeseman, G. Scalmani, V. Barone, 
 G. A. Petersson, H. Nakatsuji, X. Li, M. Caricato, A. V. Marenich, 
 J. Bloino, B. G. Janesko, R. Gomperts, B. Mennucci, H. P. Hratchian, 
 J. V. Ortiz, A. F. Izmaylov, J. L. Sonnenberg, D. Williams-Young, 
 F. Ding, F. Lipparini, F. Egidi, J. Goings, B. Peng, A. Petrone, 
 T. Henderson, D. Ranasinghe, V. G. Zakrzewski, J. Gao, N. Rega, 
 G. Zheng, W. Liang, M. Hada, M. Ehara, K. Toyota, R. Fukuda, 
 J. Hasegawa, M. Ishida, T. Nakajima, Y. Honda, O. Kitao, H. Nakai, 
 T. Vreven, K. Throssell, J. A. Montgomery, Jr., J. E. Peralta, 
 F. Ogliaro, M. J. Bearpark, J. J. Heyd, E. N. Brothers, K. N. Kudin, 
 V. N. Staroverov, T. A. Keith, R. Kobayashi, J. Normand, 
 K. Raghavachari, A. P. Rendell, J. C. Burant, S. S. Iyengar, 
 J. Tomasi, M. Cossi, J. M. Millam, M. Klene, C. Adamo, R. Cammi, 
 J. W. Ochterski, R. L. Martin, K. Morokuma, O. Farkas, 
 J. B. Foresman, and D. J. Fox, Gaussian, Inc., Wallingford CT, 2019.
 
 ******************************************
 Gaussian 16:  ES64L-G16RevC.01  3-Jul-2019
                 2-Oct-2021 
 ******************************************
 %mem=40GB
 %nprocshared=16
 Will use up to   16 processors via shared memory.
 %chk=/home/rtong2/g16/100121/benzCH2CCH2NCHCH3-2.chk
 ------------------------------------
 # opt freq b3lyp/6-31g(d) guess=read
 ------------------------------------
 1/18=20,19=15,26=3,38=1/1,3;
 2/9=110,12=2,17=6,18=5,40=1/2;
 3/5=1,6=6,7=1,11=2,25=1,30=1,71=1,74=-5,116=-2/1,2,3;
 4/5=1/1;
 5/5=2,38=6/2;
 6/7=2,8=2,9=2,10=2,28=1/1;
 7//1,2,3,16;
 1/18=20,19=15,26=3/3(2);
 2/9=110/2;
 99//99;
 2/9=110/2;
 3/5=1,6=6,7=1,11=2,25=1,30=1,71=1,74=-5/1,2,3;
 4/5=5,16=3,69=1/1;
 5/5=2,38=5/2;
 7//1,2,3,16;
 1/18=20,19=15,26=3/3(-5);
 2/9=110/2;
 6/7=2,8=2,9=2,10=2,19=2,28=1/1;
 99/9=1/99;
 -----------------
 benzCH2CCH2NCHCH3
 -----------------
 Symbolic Z-matrix:
 Charge =  0 Multiplicity = 1
 C                     2.01144   2.90026  -0.3343 
 C                     1.55815   1.69397   0.21425 
 C                     1.88889   0.47966  -0.39909 
 C                     2.66918   0.46878  -1.56304 
 C                     3.12208   1.67463  -2.11354 
 C                     2.79433   2.89083  -1.49825 
 H                     1.7606    3.82873   0.13487 
 H                     0.96025   1.69969   1.10145 
 H                     2.9189   -0.46072  -2.03087 
 H                     3.71725   1.66746  -3.00294 
 H                     3.14172   3.81314  -1.91685 
 C                     1.39355  -0.84477   0.20604 
 H                     2.21229  -1.52867   0.28395 
 H                     0.98705  -0.66379   1.17845 
 C                     0.30523  -1.44704  -0.70216 
 C                    -0.18568  -2.7759   -0.09709 
 H                     0.63643  -3.45743  -0.01944 
 H                    -0.59199  -2.59428   0.87541 
 C                    -1.27436  -3.38722  -1.00122 
 C                    -0.91508  -4.26399  -2.03358 
 C                    -2.62386  -3.0682   -0.79154 
 C                    -1.90384  -4.82631  -2.85254 
 H                     0.11477  -4.50337  -2.19653 
 C                    -3.61274  -3.63197  -1.61027 
 H                    -2.8993   -2.39451  -0.00689 
 C                    -3.25275  -4.51135  -2.64022 
 H                    -1.62904  -5.49696  -3.63947 
 H                    -4.64254  -3.39124  -1.44875 
 H                    -4.00802  -4.94177  -3.26485 
 C                    -0.878    -0.46741  -0.81512 
 H                    -1.63321  -0.89264  -1.44265 
 H                    -1.28388  -0.28463   0.15822 
 C                     0.8952   -1.69957  -2.10116 
 H                     0.65367  -2.69285  -2.41566 
 H                     1.95838  -1.58609  -2.06357 
 N                    -0.41228   0.8      -1.39912 
 N                     0.33386  -0.73452  -3.05635 
 C                    -0.99085   1.9122   -1.08074 
 H                    -1.79677   1.913    -0.37724 
 C                    -0.51892   3.23519  -1.71471 
 H                    -1.3441    3.91363  -1.78284 
 H                     0.24878   3.66821  -1.10834 
 H                    -0.1337    3.04303  -2.69417 
 C                     0.18801  -1.11329  -4.46816 
 C                    -1.11217  -1.77559  -4.95647 
 H                    -1.27771  -1.52173  -5.98176 
 H                    -1.02953  -2.83762  -4.86026 
 H                    -1.9327   -1.42757  -4.36626 
 H                     0.98621  -0.92937  -5.15702 
 

 GradGradGradGradGradGradGradGradGradGradGradGradGradGradGradGradGradGrad
 Berny optimization.
 Initialization pass.
                           ----------------------------
                           !    Initial Parameters    !
                           ! (Angstroms and Degrees)  !
 --------------------------                            --------------------------
 ! Name  Definition              Value          Derivative Info.                !
 --------------------------------------------------------------------------------
 ! R1    R(1,2)                  1.4005         estimate D2E/DX2                !
 ! R2    R(1,6)                  1.4028         estimate D2E/DX2                !
 ! R3    R(1,7)                  1.0701         estimate D2E/DX2                !
 ! R4    R(2,3)                  1.4            estimate D2E/DX2                !
 ! R5    R(2,8)                  1.0699         estimate D2E/DX2                !
 ! R6    R(3,4)                  1.4013         estimate D2E/DX2                !
 ! R7    R(3,12)                 1.5381         estimate D2E/DX2                !
 ! R8    R(4,5)                  1.4008         estimate D2E/DX2                !
 ! R9    R(4,9)                  1.0701         estimate D2E/DX2                !
 ! R10   R(5,6)                  1.4018         estimate D2E/DX2                !
 ! R11   R(5,10)                 1.0702         estimate D2E/DX2                !
 ! R12   R(6,11)                 1.0708         estimate D2E/DX2                !
 ! R13   R(12,13)                1.0696         estimate D2E/DX2                !
 ! R14   R(12,14)                1.0694         estimate D2E/DX2                !
 ! R15   R(12,15)                1.5401         estimate D2E/DX2                !
 ! R16   R(15,16)                1.5405         estimate D2E/DX2                !
 ! R17   R(15,30)                1.5403         estimate D2E/DX2                !
 ! R18   R(15,33)                1.5392         estimate D2E/DX2                !
 ! R19   R(16,17)                1.0707         estimate D2E/DX2                !
 ! R20   R(16,18)                1.0695         estimate D2E/DX2                !
 ! R21   R(16,19)                1.5416         estimate D2E/DX2                !
 ! R22   R(19,20)                1.4013         estimate D2E/DX2                !
 ! R23   R(19,21)                1.4025         estimate D2E/DX2                !
 ! R24   R(20,22)                1.4016         estimate D2E/DX2                !
 ! R25   R(20,23)                1.0698         estimate D2E/DX2                !
 ! R26   R(21,24)                1.4022         estimate D2E/DX2                !
 ! R27   R(21,25)                1.0702         estimate D2E/DX2                !
 ! R28   R(22,26)                1.4014         estimate D2E/DX2                !
 ! R29   R(22,27)                1.0698         estimate D2E/DX2                !
 ! R30   R(24,26)                1.4013         estimate D2E/DX2                !
 ! R31   R(24,28)                1.0698         estimate D2E/DX2                !
 ! R32   R(26,29)                1.0704         estimate D2E/DX2                !
 ! R33   R(30,31)                1.07           estimate D2E/DX2                !
 ! R34   R(30,32)                1.0703         estimate D2E/DX2                !
 ! R35   R(30,36)                1.4712         estimate D2E/DX2                !
 ! R36   R(33,34)                1.0695         estimate D2E/DX2                !
 ! R37   R(33,35)                1.0699         estimate D2E/DX2                !
 ! R38   R(33,37)                1.4693         estimate D2E/DX2                !
 ! R39   R(36,38)                1.2935         estimate D2E/DX2                !
 ! R40   R(37,44)                1.469          estimate D2E/DX2                !
 ! R41   R(38,39)                1.0698         estimate D2E/DX2                !
 ! R42   R(38,40)                1.5411         estimate D2E/DX2                !
 ! R43   R(40,41)                1.0704         estimate D2E/DX2                !
 ! R44   R(40,42)                1.0698         estimate D2E/DX2                !
 ! R45   R(40,43)                1.0699         estimate D2E/DX2                !
 ! R46   R(44,45)                1.5387         estimate D2E/DX2                !
 ! R47   R(44,49)                1.0703         estimate D2E/DX2                !
 ! R48   R(45,46)                1.0691         estimate D2E/DX2                !
 ! R49   R(45,47)                1.0696         estimate D2E/DX2                !
 ! R50   R(45,48)                1.069          estimate D2E/DX2                !
 ! A1    A(2,1,6)              119.9884         estimate D2E/DX2                !
 ! A2    A(2,1,7)              119.9817         estimate D2E/DX2                !
 ! A3    A(6,1,7)              120.0299         estimate D2E/DX2                !
 ! A4    A(1,2,3)              119.9336         estimate D2E/DX2                !
 ! A5    A(1,2,8)              120.0703         estimate D2E/DX2                !
 ! A6    A(3,2,8)              119.996          estimate D2E/DX2                !
 ! A7    A(2,3,4)              120.1423         estimate D2E/DX2                !
 ! A8    A(2,3,12)             119.8956         estimate D2E/DX2                !
 ! A9    A(4,3,12)             119.9621         estimate D2E/DX2                !
 ! A10   A(3,4,5)              119.9843         estimate D2E/DX2                !
 ! A11   A(3,4,9)              119.9859         estimate D2E/DX2                !
 ! A12   A(5,4,9)              120.0298         estimate D2E/DX2                !
 ! A13   A(4,5,6)              119.9175         estimate D2E/DX2                !
 ! A14   A(4,5,10)             120.0427         estimate D2E/DX2                !
 ! A15   A(6,5,10)             120.0398         estimate D2E/DX2                !
 ! A16   A(1,6,5)              120.0336         estimate D2E/DX2                !
 ! A17   A(1,6,11)             119.9765         estimate D2E/DX2                !
 ! A18   A(5,6,11)             119.9899         estimate D2E/DX2                !
 ! A19   A(3,12,13)            109.4337         estimate D2E/DX2                !
 ! A20   A(3,12,14)            109.539          estimate D2E/DX2                !
 ! A21   A(3,12,15)            109.4083         estimate D2E/DX2                !
 ! A22   A(13,12,14)           109.4469         estimate D2E/DX2                !
 ! A23   A(13,12,15)           109.5004         estimate D2E/DX2                !
 ! A24   A(14,12,15)           109.499          estimate D2E/DX2                !
 ! A25   A(12,15,16)           109.3235         estimate D2E/DX2                !
 ! A26   A(12,15,30)           109.7169         estimate D2E/DX2                !
 ! A27   A(12,15,33)           109.2259         estimate D2E/DX2                !
 ! A28   A(16,15,30)           109.4293         estimate D2E/DX2                !
 ! A29   A(16,15,33)           109.733          estimate D2E/DX2                !
 ! A30   A(30,15,33)           109.3991         estimate D2E/DX2                !
 ! A31   A(15,16,17)           109.4445         estimate D2E/DX2                !
 ! A32   A(15,16,18)           109.3744         estimate D2E/DX2                !
 ! A33   A(15,16,19)           109.6805         estimate D2E/DX2                !
 ! A34   A(17,16,18)           109.5031         estimate D2E/DX2                !
 ! A35   A(17,16,19)           109.4129         estimate D2E/DX2                !
 ! A36   A(18,16,19)           109.4118         estimate D2E/DX2                !
 ! A37   A(16,19,20)           119.9433         estimate D2E/DX2                !
 ! A38   A(16,19,21)           120.1102         estimate D2E/DX2                !
 ! A39   A(20,19,21)           119.9465         estimate D2E/DX2                !
 ! A40   A(19,20,22)           120.0406         estimate D2E/DX2                !
 ! A41   A(19,20,23)           119.9372         estimate D2E/DX2                !
 ! A42   A(22,20,23)           120.0222         estimate D2E/DX2                !
 ! A43   A(19,21,24)           119.991          estimate D2E/DX2                !
 ! A44   A(19,21,25)           120.0291         estimate D2E/DX2                !
 ! A45   A(24,21,25)           119.9799         estimate D2E/DX2                !
 ! A46   A(20,22,26)           120.0225         estimate D2E/DX2                !
 ! A47   A(20,22,27)           120.0054         estimate D2E/DX2                !
 ! A48   A(26,22,27)           119.972          estimate D2E/DX2                !
 ! A49   A(21,24,26)           120.0205         estimate D2E/DX2                !
 ! A50   A(21,24,28)           120.0155         estimate D2E/DX2                !
 ! A51   A(26,24,28)           119.9641         estimate D2E/DX2                !
 ! A52   A(22,26,24)           119.9781         estimate D2E/DX2                !
 ! A53   A(22,26,29)           120.0249         estimate D2E/DX2                !
 ! A54   A(24,26,29)           119.997          estimate D2E/DX2                !
 ! A55   A(15,30,31)           109.4172         estimate D2E/DX2                !
 ! A56   A(15,30,32)           109.4655         estimate D2E/DX2                !
 ! A57   A(15,30,36)           109.5029         estimate D2E/DX2                !
 ! A58   A(31,30,32)           109.4846         estimate D2E/DX2                !
 ! A59   A(31,30,36)           109.4498         estimate D2E/DX2                !
 ! A60   A(32,30,36)           109.5074         estimate D2E/DX2                !
 ! A61   A(15,33,34)           109.4566         estimate D2E/DX2                !
 ! A62   A(15,33,35)           109.3641         estimate D2E/DX2                !
 ! A63   A(15,33,37)           109.6758         estimate D2E/DX2                !
 ! A64   A(34,33,35)           109.4665         estimate D2E/DX2                !
 ! A65   A(34,33,37)           109.4233         estimate D2E/DX2                !
 ! A66   A(35,33,37)           109.4409         estimate D2E/DX2                !
 ! A67   A(30,36,38)           120.0968         estimate D2E/DX2                !
 ! A68   A(33,37,44)           119.5629         estimate D2E/DX2                !
 ! A69   A(36,38,39)           119.966          estimate D2E/DX2                !
 ! A70   A(36,38,40)           119.9956         estimate D2E/DX2                !
 ! A71   A(39,38,40)           120.0384         estimate D2E/DX2                !
 ! A72   A(38,40,41)           109.5253         estimate D2E/DX2                !
 ! A73   A(38,40,42)           109.515          estimate D2E/DX2                !
 ! A74   A(38,40,43)           109.4316         estimate D2E/DX2                !
 ! A75   A(41,40,42)           109.4337         estimate D2E/DX2                !
 ! A76   A(41,40,43)           109.4585         estimate D2E/DX2                !
 ! A77   A(42,40,43)           109.4632         estimate D2E/DX2                !
 ! A78   A(37,44,45)           119.9921         estimate D2E/DX2                !
 ! A79   A(37,44,49)           120.0141         estimate D2E/DX2                !
 ! A80   A(45,44,49)           119.9937         estimate D2E/DX2                !
 ! A81   A(44,45,46)           109.4483         estimate D2E/DX2                !
 ! A82   A(44,45,47)           109.485          estimate D2E/DX2                !
 ! A83   A(44,45,48)           109.4662         estimate D2E/DX2                !
 ! A84   A(46,45,47)           109.5117         estimate D2E/DX2                !
 ! A85   A(46,45,48)           109.4704         estimate D2E/DX2                !
 ! A86   A(47,45,48)           109.4457         estimate D2E/DX2                !
 ! D1    D(6,1,2,3)              0.0942         estimate D2E/DX2                !
 ! D2    D(6,1,2,8)           -179.9457         estimate D2E/DX2                !
 ! D3    D(7,1,2,3)           -179.8884         estimate D2E/DX2                !
 ! D4    D(7,1,2,8)              0.0717         estimate D2E/DX2                !
 ! D5    D(2,1,6,5)              0.0688         estimate D2E/DX2                !
 ! D6    D(2,1,6,11)          -179.9303         estimate D2E/DX2                !
 ! D7    D(7,1,6,5)           -179.9487         estimate D2E/DX2                !
 ! D8    D(7,1,6,11)             0.0523         estimate D2E/DX2                !
 ! D9    D(1,2,3,4)             -0.1923         estimate D2E/DX2                !
 ! D10   D(1,2,3,12)           179.8482         estimate D2E/DX2                !
 ! D11   D(8,2,3,4)            179.8476         estimate D2E/DX2                !
 ! D12   D(8,2,3,12)            -0.1119         estimate D2E/DX2                !
 ! D13   D(2,3,4,5)              0.1271         estimate D2E/DX2                !
 ! D14   D(2,3,4,9)           -179.8806         estimate D2E/DX2                !
 ! D15   D(12,3,4,5)          -179.9134         estimate D2E/DX2                !
 ! D16   D(12,3,4,9)             0.0789         estimate D2E/DX2                !
 ! D17   D(2,3,12,13)         -131.1186         estimate D2E/DX2                !
 ! D18   D(2,3,12,14)          -11.13           estimate D2E/DX2                !
 ! D19   D(2,3,12,15)          108.907          estimate D2E/DX2                !
 ! D20   D(4,3,12,13)           48.9218         estimate D2E/DX2                !
 ! D21   D(4,3,12,14)          168.9104         estimate D2E/DX2                !
 ! D22   D(4,3,12,15)          -71.0526         estimate D2E/DX2                !
 ! D23   D(3,4,5,6)              0.0362         estimate D2E/DX2                !
 ! D24   D(3,4,5,10)          -179.9411         estimate D2E/DX2                !
 ! D25   D(9,4,5,6)           -179.9562         estimate D2E/DX2                !
 ! D26   D(9,4,5,10)             0.0665         estimate D2E/DX2                !
 ! D27   D(4,5,6,1)             -0.1339         estimate D2E/DX2                !
 ! D28   D(4,5,6,11)           179.8651         estimate D2E/DX2                !
 ! D29   D(10,5,6,1)           179.8434         estimate D2E/DX2                !
 ! D30   D(10,5,6,11)           -0.1576         estimate D2E/DX2                !
 ! D31   D(3,12,15,16)         179.7898         estimate D2E/DX2                !
 ! D32   D(3,12,15,30)         -60.2019         estimate D2E/DX2                !
 ! D33   D(3,12,15,33)          59.7092         estimate D2E/DX2                !
 ! D34   D(13,12,15,16)         59.8563         estimate D2E/DX2                !
 ! D35   D(13,12,15,30)        179.8646         estimate D2E/DX2                !
 ! D36   D(13,12,15,33)        -60.2242         estimate D2E/DX2                !
 ! D37   D(14,12,15,16)        -60.1488         estimate D2E/DX2                !
 ! D38   D(14,12,15,30)         59.8595         estimate D2E/DX2                !
 ! D39   D(14,12,15,33)        179.7707         estimate D2E/DX2                !
 ! D40   D(12,15,16,17)        -59.8761         estimate D2E/DX2                !
 ! D41   D(12,15,16,18)         60.0875         estimate D2E/DX2                !
 ! D42   D(12,15,16,19)       -179.9166         estimate D2E/DX2                !
 ! D43   D(30,15,16,17)        179.9392         estimate D2E/DX2                !
 ! D44   D(30,15,16,18)        -60.0972         estimate D2E/DX2                !
 ! D45   D(30,15,16,19)         59.8987         estimate D2E/DX2                !
 ! D46   D(33,15,16,17)         59.8927         estimate D2E/DX2                !
 ! D47   D(33,15,16,18)        179.8563         estimate D2E/DX2                !
 ! D48   D(33,15,16,19)        -60.1478         estimate D2E/DX2                !
 ! D49   D(12,15,30,31)       -179.7015         estimate D2E/DX2                !
 ! D50   D(12,15,30,32)        -59.7217         estimate D2E/DX2                !
 ! D51   D(12,15,30,36)         60.3384         estimate D2E/DX2                !
 ! D52   D(16,15,30,31)        -59.7577         estimate D2E/DX2                !
 ! D53   D(16,15,30,32)         60.222          estimate D2E/DX2                !
 ! D54   D(16,15,30,36)       -179.7178         estimate D2E/DX2                !
 ! D55   D(33,15,30,31)         60.4931         estimate D2E/DX2                !
 ! D56   D(33,15,30,32)       -179.5272         estimate D2E/DX2                !
 ! D57   D(33,15,30,36)        -59.467          estimate D2E/DX2                !
 ! D58   D(12,15,33,34)        131.2039         estimate D2E/DX2                !
 ! D59   D(12,15,33,35)         11.2841         estimate D2E/DX2                !
 ! D60   D(12,15,33,37)       -108.7383         estimate D2E/DX2                !
 ! D61   D(16,15,33,34)         11.3754         estimate D2E/DX2                !
 ! D62   D(16,15,33,35)       -108.5444         estimate D2E/DX2                !
 ! D63   D(16,15,33,37)        131.4333         estimate D2E/DX2                !
 ! D64   D(30,15,33,34)       -108.6894         estimate D2E/DX2                !
 ! D65   D(30,15,33,35)        131.3907         estimate D2E/DX2                !
 ! D66   D(30,15,33,37)         11.3684         estimate D2E/DX2                !
 ! D67   D(15,16,19,20)         90.0396         estimate D2E/DX2                !
 ! D68   D(15,16,19,21)        -90.0137         estimate D2E/DX2                !
 ! D69   D(17,16,19,20)        -30.0202         estimate D2E/DX2                !
 ! D70   D(17,16,19,21)        149.9265         estimate D2E/DX2                !
 ! D71   D(18,16,19,20)       -149.9873         estimate D2E/DX2                !
 ! D72   D(18,16,19,21)         29.9594         estimate D2E/DX2                !
 ! D73   D(16,19,20,22)        179.6754         estimate D2E/DX2                !
 ! D74   D(16,19,20,23)         -0.3625         estimate D2E/DX2                !
 ! D75   D(21,19,20,22)         -0.2714         estimate D2E/DX2                !
 ! D76   D(21,19,20,23)        179.6907         estimate D2E/DX2                !
 ! D77   D(16,19,21,24)       -179.6152         estimate D2E/DX2                !
 ! D78   D(16,19,21,25)          0.3897         estimate D2E/DX2                !
 ! D79   D(20,19,21,24)          0.3315         estimate D2E/DX2                !
 ! D80   D(20,19,21,25)       -179.6636         estimate D2E/DX2                !
 ! D81   D(19,20,22,26)          0.0473         estimate D2E/DX2                !
 ! D82   D(19,20,22,27)       -179.8938         estimate D2E/DX2                !
 ! D83   D(23,20,22,26)       -179.9148         estimate D2E/DX2                !
 ! D84   D(23,20,22,27)          0.1441         estimate D2E/DX2                !
 ! D85   D(19,21,24,26)         -0.1676         estimate D2E/DX2                !
 ! D86   D(19,21,24,28)        179.8115         estimate D2E/DX2                !
 ! D87   D(25,21,24,26)        179.8275         estimate D2E/DX2                !
 ! D88   D(25,21,24,28)         -0.1934         estimate D2E/DX2                !
 ! D89   D(20,22,26,24)          0.1169         estimate D2E/DX2                !
 ! D90   D(20,22,26,29)       -179.9213         estimate D2E/DX2                !
 ! D91   D(27,22,26,24)       -179.9421         estimate D2E/DX2                !
 ! D92   D(27,22,26,29)          0.0197         estimate D2E/DX2                !
 ! D93   D(21,24,26,22)         -0.0566         estimate D2E/DX2                !
 ! D94   D(21,24,26,29)        179.9816         estimate D2E/DX2                !
 ! D95   D(28,24,26,22)        179.9642         estimate D2E/DX2                !
 ! D96   D(28,24,26,29)          0.0024         estimate D2E/DX2                !
 ! D97   D(15,30,36,38)       -149.8225         estimate D2E/DX2                !
 ! D98   D(31,30,36,38)         90.2374         estimate D2E/DX2                !
 ! D99   D(32,30,36,38)        -29.7879         estimate D2E/DX2                !
 ! D100  D(15,33,37,44)       -150.3341         estimate D2E/DX2                !
 ! D101  D(34,33,37,44)        -30.256          estimate D2E/DX2                !
 ! D102  D(35,33,37,44)         89.6904         estimate D2E/DX2                !
 ! D103  D(30,36,38,39)          1.1924         estimate D2E/DX2                !
 ! D104  D(30,36,38,40)       -178.8151         estimate D2E/DX2                !
 ! D105  D(33,37,44,45)         89.9847         estimate D2E/DX2                !
 ! D106  D(33,37,44,49)        -89.9675         estimate D2E/DX2                !
 ! D107  D(36,38,40,41)        150.017          estimate D2E/DX2                !
 ! D108  D(36,38,40,42)        -89.9689         estimate D2E/DX2                !
 ! D109  D(36,38,40,43)         30.0238         estimate D2E/DX2                !
 ! D110  D(39,38,40,41)        -29.9904         estimate D2E/DX2                !
 ! D111  D(39,38,40,42)         90.0236         estimate D2E/DX2                !
 ! D112  D(39,38,40,43)       -149.9837         estimate D2E/DX2                !
 ! D113  D(37,44,45,46)        150.2955         estimate D2E/DX2                !
 ! D114  D(37,44,45,47)        -89.6605         estimate D2E/DX2                !
 ! D115  D(37,44,45,48)         30.3136         estimate D2E/DX2                !
 ! D116  D(49,44,45,46)        -29.7523         estimate D2E/DX2                !
 ! D117  D(49,44,45,47)         90.2916         estimate D2E/DX2                !
 ! D118  D(49,44,45,48)       -149.7343         estimate D2E/DX2                !
 --------------------------------------------------------------------------------
 Trust Radius=3.00D-01 FncErr=1.00D-07 GrdErr=1.00D-06 EigMax=2.50D+02 EigMin=1.00D-04
 Number of steps in this run=    264 maximum allowed number of steps=    294.
 GradGradGradGradGradGradGradGradGradGradGradGradGradGradGradGradGradGrad

                          Input orientation:                          
 ---------------------------------------------------------------------
 Center     Atomic      Atomic             Coordinates (Angstroms)
 Number     Number       Type             X           Y           Z
 ---------------------------------------------------------------------
      1          6           0        2.011436    2.900262   -0.334301
      2          6           0        1.558153    1.693969    0.214250
      3          6           0        1.888890    0.479661   -0.399094
      4          6           0        2.669184    0.468782   -1.563040
      5          6           0        3.122079    1.674628   -2.113541
      6          6           0        2.794329    2.890830   -1.498248
      7          1           0        1.760595    3.828734    0.134873
      8          1           0        0.960245    1.699686    1.101446
      9          1           0        2.918905   -0.460723   -2.030869
     10          1           0        3.717253    1.667464   -3.002945
     11          1           0        3.141717    3.813143   -1.916848
     12          6           0        1.393552   -0.844771    0.206041
     13          1           0        2.212286   -1.528669    0.283954
     14          1           0        0.987054   -0.663789    1.178452
     15          6           0        0.305234   -1.447036   -0.702165
     16          6           0       -0.185677   -2.775900   -0.097088
     17          1           0        0.636431   -3.457426   -0.019443
     18          1           0       -0.591985   -2.594278    0.875408
     19          6           0       -1.274365   -3.387219   -1.001219
     20          6           0       -0.915078   -4.263993   -2.033583
     21          6           0       -2.623864   -3.068199   -0.791542
     22          6           0       -1.903841   -4.826311   -2.852543
     23          1           0        0.114775   -4.503367   -2.196535
     24          6           0       -3.612740   -3.631971   -1.610272
     25          1           0       -2.899296   -2.394510   -0.006885
     26          6           0       -3.252753   -4.511353   -2.640223
     27          1           0       -1.629044   -5.496960   -3.639474
     28          1           0       -4.642540   -3.391236   -1.448749
     29          1           0       -4.008023   -4.941767   -3.264853
     30          6           0       -0.877997   -0.467413   -0.815119
     31          1           0       -1.633211   -0.892637   -1.442651
     32          1           0       -1.283876   -0.284630    0.158223
     33          6           0        0.895201   -1.699567   -2.101156
     34          1           0        0.653667   -2.692847   -2.415656
     35          1           0        1.958384   -1.586093   -2.063568
     36          7           0       -0.412284    0.800003   -1.399122
     37          7           0        0.333863   -0.734525   -3.056347
     38          6           0       -0.990849    1.912197   -1.080745
     39          1           0       -1.796766    1.913004   -0.377237
     40          6           0       -0.518924    3.235190   -1.714711
     41          1           0       -1.344097    3.913630   -1.782845
     42          1           0        0.248778    3.668208   -1.108339
     43          1           0       -0.133699    3.043033   -2.694169
     44          6           0        0.188006   -1.113295   -4.468161
     45          6           0       -1.112175   -1.775594   -4.956466
     46          1           0       -1.277708   -1.521725   -5.981757
     47          1           0       -1.029534   -2.837622   -4.860257
     48          1           0       -1.932703   -1.427570   -4.366264
     49          1           0        0.986210   -0.929372   -5.157017
 ---------------------------------------------------------------------
                    Distance matrix (angstroms):
                    1          2          3          4          5
     1  C    0.000000
     2  C    1.400541   0.000000
     3  C    2.424566   1.400043   0.000000
     4  C    2.802592   2.427804   1.401338   0.000000
     5  C    2.429280   2.804435   2.426527   1.400796   0.000000
     6  C    1.402777   2.427603   2.800303   2.426145   1.401840
     7  H    1.070096   2.145811   3.393799   3.872689   3.398408
     8  H    2.146568   1.069879   2.145335   3.396333   3.874312
     9  H    3.872732   3.396307   2.146612   1.070142   2.146587
    10  H    3.398715   3.874631   3.396149   2.146768   1.070197
    11  H    2.148335   3.397080   3.871079   3.396059   2.147631
    12  C    3.833930   2.544083   1.538072   2.546037   3.836096
    13  H    4.476384   3.289095   2.145817   2.758615   4.103270
    14  H    4.005027   2.610529   2.146960   3.409993   4.567685
    15  C    4.684597   3.503646   2.512366   3.162234   4.435244
    16  C    6.091173   4.808077   3.872172   4.563684   5.900384
    17  H    6.512294   5.238421   4.148909   4.682936   6.074675
    18  H    6.199287   4.842446   4.150687   5.095448   6.399348
    19  C    7.125565   5.942978   5.032047   5.544002   6.796195
    20  C    7.923294   6.831320   5.747699   5.955460   7.181382
    21  C    7.570838   6.417096   5.753805   6.412627   7.566898
    22  C    9.020580   7.994040   6.968325   7.114308   8.250345
    23  H    7.866317   6.804572   5.586488   5.625707   6.871563
    24  C    8.713754   7.644125   6.974267   7.502064   8.589007
    25  H    7.228907   6.052554   5.598340   6.451978   7.566560
    26  C    9.378752   8.354571   7.507954   7.812260   8.898440
    27  H    9.730909   8.758931   7.654797   7.640446   8.736893
    28  H    9.224985   8.189840   7.664542   8.268864   9.294850
    29  H   10.311131   9.333780   8.507528   8.761010   9.794924
    30  C    4.463322   3.415553   2.953928   3.744107   4.719623
    31  H    5.375683   4.429521   3.921404   4.514261   5.445523
    32  H    4.609251   3.463397   3.310768   4.376877   5.330295
    33  C    5.052344   4.161333   2.938276   2.852774   4.042812
    34  H    6.120330   5.194098   3.956906   3.845148   5.025850
    35  H    4.808384   4.013408   2.653798   2.231205   3.462511
    36  N    3.379252   2.699030   2.529442   3.103549   3.710402
    37  N    4.841018   4.253619   3.309585   3.021860   3.803557
    38  C    3.247639   2.867410   3.287811   3.963823   4.247267
    39  H    3.934326   3.413695   3.954618   4.841137   5.221744
    40  C    2.901797   3.226530   3.888618   4.223747   3.981371
    41  H    3.792729   4.163933   4.915192   5.293554   5.006917
    42  H    2.072640   2.713176   3.655110   4.037505   3.638771
    43  H    3.192329   3.625085   3.991129   3.970185   3.579071
    44  C    6.043370   5.628766   4.689117   4.135086   4.682470
    45  C    7.279078   6.775310   5.904423   5.554389   6.157528
    46  H    7.890893   7.534806   6.723021   6.250210   6.673671
    47  H    7.915497   7.278878   6.278817   5.956884   6.718685
    48  H    7.109365   6.550663   5.829283   5.712405   6.344226
    49  H    6.243058   6.004961   5.043614   4.207602   4.539328
                    6          7          8          9         10
     6  C    0.000000
     7  H    2.148337   0.000000
     8  H    3.397219   2.471370   0.000000
     9  H    3.395896   4.942829   4.279616   0.000000
    10  H    2.147680   4.283165   4.944508   2.472138   0.000000
    11  H    1.070778   2.473317   4.282011   4.281188   2.472810
    12  C    4.338374   4.688436   2.731989   2.734586   4.691322
    13  H    4.800729   5.378478   3.557834   2.645416   4.825339
    14  H    4.802737   4.676558   2.364882   3.751403   5.511153
    15  C    5.064231   5.536467   3.685636   3.093468   5.160967
    16  C    6.554046   6.889338   4.772892   4.328739   6.589412
    17  H    6.866131   7.373988   5.287444   4.270334   6.682608
    18  H    6.869336   6.880270   4.571503   5.032381   7.195387
    19  C    7.497680   7.910225   5.940647   5.216135   7.380581
    20  C    8.076991   8.795093   6.993620   5.400398   7.588170
    21  C    8.084941   8.224926   6.257952   6.249572   8.217455
    22  C    9.135709   9.862178   8.150194   6.556858   8.590019
    23  H    7.895680   8.807275   7.075971   4.922760   7.190778
    24  C    9.143851   9.358439   7.529421   7.272970   9.151630
    25  H    7.910522   7.775825   5.734710   6.456586   8.321942
    26  C    9.626195  10.118887   8.386087   7.407313   9.321498
    27  H    9.721425  10.616210   8.998470   6.973890   8.961977
    28  H    9.735186   9.779365   7.988254   8.130328   9.894045
    29  H   10.523424  11.034345   9.373215   8.341750  10.170074
    30  C    5.022991   5.130452   3.427634   3.986798   5.519113
    31  H    5.824159   6.024770   4.463024   4.610239   6.133196
    32  H    5.427633   5.117530   3.140583   4.741993   6.230164
    33  C    5.004191   6.025848   4.670740   2.373826   4.484874
    34  H    6.049919   7.089535   5.635454   3.203396   5.361229
    35  H    4.589252   5.847445   4.670111   1.479908   3.815977
    36  N    3.829327   4.030850   2.991004   3.617368   4.514179
    37  N    4.650244   5.748285   4.858496   2.794462   4.149666
    38  C    3.931870   3.566691   2.934942   4.671151   5.091264
    39  H    4.826071   4.072726   3.135780   5.532325   6.112204
    40  C    3.338125   2.994906   3.532202   5.057508   4.697074
    41  H    4.272433   3.650200   4.304727   6.113073   5.670201
    42  H    2.690014   1.963908   3.043750   5.002870   4.429767
    43  H    3.166503   3.494160   4.172289   4.694109   4.100898
    44  C    5.625506   6.934306   6.287268   3.718071   4.725998
    45  C    6.999683   8.098335   7.284971   5.151467   6.244539
    46  H    7.493596   8.675935   8.096770   5.860614   6.632788
    47  H    7.664216   8.785013   7.751664   5.407889   6.802749
    48  H    7.015620   7.844068   6.931430   5.470554   6.584822
    49  H    5.590155   7.158446   6.788298   3.705097   4.340758
                   11         12         13         14         15
    11  H    0.000000
    12  C    5.409149   0.000000
    13  H    5.851695   1.069632   0.000000
    14  H    5.853749   1.069382   1.746235   0.000000
    15  C    6.098408   1.540130   2.148475   2.148272   0.000000
    16  C    7.602537   2.512990   2.729653   2.731907   1.540451
    17  H    7.920718   2.729477   2.509078   3.059787   2.148830
    18  H    7.924157   2.729687   3.057659   2.512367   2.147068
    19  C    8.496197   3.878054   4.154830   4.157168   2.519697
    20  C    9.039432   4.694334   4.757455   5.186207   3.346204
    21  C    9.047712   4.698770   5.187985   4.764534   3.348995
    22  C   10.048549   6.006696   6.136331   6.475552   4.574236
    23  H    8.854656   4.559931   4.404680   5.185920   3.407429
    24  C   10.057156   6.010860   6.476334   6.143711   4.577020
    25  H    8.869992   4.568980   5.192546   4.416349   3.413229
    26  C   10.521870   6.567587   6.878508   6.882005   5.079899
    27  H   10.602151   6.750329   6.774691   7.308619   5.363869
    28  H   10.616820   6.757014   7.311639   6.784798   5.368219
    29  H   11.383512   7.616397   7.933190   7.936929   6.114302
    30  C    5.974535   2.518949   3.447329   2.737025   1.540278
    31  H    6.720801   3.446995   4.263045   3.713266   2.147847
    32  H    6.378364   2.735812   3.713030   2.518284   2.148657
    33  C    5.955734   2.510416   2.729958   3.440509   1.539159
    34  H    6.983345   3.291825   3.327537   4.140753   2.146975
    35  H    5.529335   2.453512   2.361911   3.507823   2.146080
    36  N    4.688067   2.922820   3.891507   3.277915   2.459627
    37  N    5.464777   3.431949   3.913663   4.285463   2.459811
    38  C    4.625015   3.865495   4.895103   3.956232   3.620442
    39  H    5.510857   4.257190   5.324921   4.099962   3.976663
    40  C    3.711493   4.898258   5.843674   5.083345   4.860836
    41  H    4.488940   5.838901   6.821887   5.929276   5.711821
    42  H    3.007289   4.837880   5.727249   4.953854   5.131656
    43  H    3.453353   5.085149   5.939136   5.476661   4.931680
    44  C    6.285172   4.834626   5.181973   5.720557   3.782572
    45  C    7.653029   5.813483   6.210879   6.578761   4.496229
    46  H    8.032161   6.773680   7.172116   7.558690   5.512293
    47  H    8.384251   5.959042   6.219780   6.727421   4.583129
    48  H    7.695092   5.684154   6.230223   6.312861   4.293525
    49  H    6.134848   5.379171   5.609509   6.341034   4.536234
                   16         17         18         19         20
    16  C    0.000000
    17  H    1.070686   0.000000
    18  H    1.069497   1.747796   0.000000
    19  C    1.541559   2.149408   2.148518   0.000000
    20  C    2.548815   2.667300   3.369654   1.401283   0.000000
    21  C    2.551951   3.373004   2.670553   1.402457   2.427455
    22  C    3.840416   4.043919   4.538783   2.427885   1.401623
    23  H    2.735340   2.471001   3.685236   2.145757   1.069789
    24  C    3.842830   4.540557   4.047267   2.428754   2.802860
    25  H    2.741773   3.692060   2.478312   2.148155   3.396997
    26  C    4.345835   4.806766   4.807757   2.804288   2.427741
    27  H    4.694248   4.732515   5.466737   3.396644   2.146821
    28  H    4.697792   5.469446   4.737494   3.397780   3.872688
    29  H    5.416275   5.857209   5.858479   3.874731   3.397309
    30  C    2.514754   3.444818   2.731893   2.952458   3.987487
    31  H    2.729940   3.708765   3.058289   2.558627   3.497278
    32  H    2.734530   3.712921   2.515461   3.312168   4.557999
    33  C    2.518547   2.736889   3.445601   2.960582   3.139739
    34  H    2.467216   2.515297   3.520294   2.489998   2.252874
    35  H    3.143196   3.070488   4.019752   3.850104   3.927955
    36  N    3.812313   4.596632   4.089856   4.293523   5.128294
    37  N    3.632403   4.090053   4.446862   3.721120   3.881114
    38  C    4.857379   5.710276   4.928888   5.307590   6.249717
    39  H    4.965875   5.906774   4.830756   5.362333   6.455706
    40  C    6.233856   6.999992   6.379400   6.703436   7.516406
    41  H    6.995250   7.833553   7.069996   7.342901   8.192706
    42  H    6.537424   7.218770   6.622754   7.218760   8.070344
    43  H    6.372403   7.071297   6.688138   6.746506   7.378317
    44  C    4.691500   5.048478   5.599592   4.396469   4.131690
    45  C    5.047034   5.500943   5.911987   4.274063   3.843724
    46  H    6.115129   6.554392   6.974331   5.318443   4.820748
    47  H    4.837735   5.156848   5.757476   3.905659   3.168236
    48  H    4.805825   5.442023   5.534786   3.949324   3.810808
    49  H    5.512338   5.736556   6.453896   5.331216   4.948781
                   21         22         23         24         25
    21  C    0.000000
    22  C    2.803055   0.000000
    23  H    3.396152   2.146962   0.000000
    24  C    1.402153   2.426936   3.872647   0.000000
    25  H    1.070236   3.873287   4.280942   2.147361   0.000000
    26  C    2.428131   1.401372   3.396640   1.401322   3.397120
    27  H    3.872888   1.069834   2.471883   3.395717   4.943120
    28  H    2.147401   3.395666   4.942475   1.069828   2.472112
    29  H    3.397561   2.147303   4.281467   2.146963   4.281605
    30  C    3.132522   4.919699   4.379820   4.257407   2.907335
    31  H    2.477580   4.187460   4.081809   3.383871   2.433109
    32  H    3.232008   5.484153   5.029796   4.444758   2.662412
    33  C    3.996506   4.263302   2.911951   4.929167   4.389433
    34  H    3.677070   3.359075   1.901684   4.442164   4.302874
    35  H    4.981132   5.102771   3.453558   5.952185   5.336716
    36  N    4.497024   5.999382   5.388821   5.470822   4.281176
    37  N    4.395853   4.668144   3.871879   5.105095   4.744269
    38  C    5.249258   7.027112   6.605062   6.155689   4.831467
    39  H    5.066371   7.180318   6.937841   5.963630   4.461772
    40  C    6.709375   8.258356   7.779395   7.532629   6.346366
    41  H    7.167037   8.822932   8.552501   7.881155   6.735377
    42  H    7.330185   8.934924   8.244802   8.273806   6.919547
    43  H    6.867901   8.067531   7.566871   7.604882   6.666101
    44  C    5.024518   4.557690   4.081450   5.381164   5.574578
    45  C    4.615476   3.789472   4.069811   4.571211   5.298604
    46  H    5.580506   4.593943   5.015685   5.386593   6.252231
    47  H    4.376014   2.958076   3.343585   4.226860   5.219921
    48  H    3.993495   3.720703   4.284905   3.908631   4.568748
    49  H    6.055129   5.371139   4.722001   6.405761   6.615712
                   26         27         28         29         30
    26  C    0.000000
    27  H    2.146242   0.000000
    28  H    2.146108   4.279545   0.000000
    29  H    1.070444   2.471461   2.470827   0.000000
    30  C    5.032288   5.816992   4.808536   5.984822   0.000000
    31  H    4.141522   5.101552   3.911406   5.035434   1.070028
    32  H    5.438103   6.458330   4.849123   6.389628   1.070300
    33  C    5.040066   4.812321   5.827003   5.992300   2.513230
    34  H    4.314801   3.817270   5.428855   5.245010   3.140106
    35  H    6.003801   5.536063   6.870862   6.949938   3.294712
    36  N    6.149724   6.793484   5.955168   7.026963   1.471153
    37  N    5.225075   5.183997   5.865754   6.049490   2.561846
    38  C    6.986428   7.864476   6.449549   7.800672   2.397047
    39  H    6.965153   8.098017   6.114044   7.759888   2.588872
    40  C    8.266760   9.010411   7.809256   9.024376   3.827201
    41  H    8.680921   9.596221   8.021996   9.365409   4.510796
    42  H    9.028434   9.691913   8.595152   9.843911   4.296390
    43  H    8.173136   8.721304   7.954907   8.893430   4.050684
    44  C    5.169814   4.817148   6.135148   5.806187   3.859823
    45  C    4.175096   3.981229   5.232385   4.612173   4.349359
    46  H    4.899441   4.627334   5.946875   5.151007   5.288240
    47  H    3.559864   2.986939   4.999869   3.980469   4.690842
    48  H    3.772462   4.144921   4.439718   4.227250   3.826869
    49  H    6.093738   5.477714   7.175992   6.679967   4.747710
                   31         32         33         34         35
    31  H    0.000000
    32  H    1.747714   0.000000
    33  C    2.734526   3.443141   0.000000
    34  H    3.068762   4.022243   1.069511   0.000000
    35  H    3.710252   4.140339   1.069881   1.746756   0.000000
    36  N    2.087484   2.088402   2.906926   3.790724   3.428557
    37  N    2.549194   3.626699   1.469285   2.085134   2.085629
    38  C    2.900120   2.539085   4.200388   5.068811   4.679951
    39  H    3.005574   2.319346   4.823821   5.601217   5.402641
    40  C    4.284227   4.059823   5.147903   6.083412   5.431714
    41  H    4.826958   4.625662   6.051756   6.930876   6.421225
    42  H    4.945195   4.424719   5.496959   6.506615   5.607396
    43  H    4.393670   4.531268   4.889024   5.796364   5.118913
    44  C    3.538252   4.925093   2.539006   2.631463   3.023217
    45  C    3.660326   5.330337   3.491151   3.227268   4.222925
    46  H    4.596261   6.263369   4.451093   4.221233   5.082188
    47  H    3.978370   5.636276   3.551396   2.971565   4.279655
    48  H    2.987199   4.711503   3.633420   3.477802   4.524168
    49  H    4.545242   5.815562   3.152741   3.276505   3.308449
                   36         37         38         39         40
    36  N    0.000000
    37  N    2.378635   0.000000
    38  C    1.293474   3.558511   0.000000
    39  H    2.049344   4.327426   1.069779   0.000000
    40  C    2.457865   4.276197   1.541083   2.273740   0.000000
    41  H    3.272643   5.103204   2.150224   2.486594   1.070437
    42  H    2.957729   4.815188   2.149654   2.792759   1.069841
    43  H    2.604984   3.823575   2.148636   3.067725   1.069888
    44  C    3.666068   1.468999   4.692322   5.462001   5.195243
    45  C    4.447274   2.604861   5.351237   5.919777   5.997406
    46  H    5.209599   3.431452   5.991162   6.593741   6.435190
    47  H    5.058930   3.088035   6.070172   6.576820   6.858150
    48  H    4.009699   2.708046   4.778678   5.204829   5.547146
    49  H    4.366726   2.208243   5.347829   6.218549   5.608785
                   41         42         43         44         45
    41  H    0.000000
    42  H    1.747124   0.000000
    43  H    1.747431   1.746995   0.000000
    44  C    5.901544   5.844217   4.530519   0.000000
    45  C    6.518660   6.804062   5.412446   1.538685   0.000000
    46  H    6.868650   7.281193   5.740558   2.146184   1.069146
    47  H    7.426225   7.618189   6.330605   2.146963   1.069574
    48  H    5.962291   6.429610   5.100843   2.146289   1.068984
    49  H    6.345867   6.170360   4.806227   1.070271   2.271460
                   46         47         48         49
    46  H    0.000000
    47  H    1.746693   0.000000
    48  H    1.745767   1.745850   0.000000
    49  H    2.481210   2.791542   3.064889   0.000000
 Stoichiometry    C21H26N2
 Framework group  C1[X(C21H26N2)]
 Deg. of freedom   141
 Full point group                 C1      NOp   1
 Largest Abelian subgroup         C1      NOp   1
 Largest concise Abelian subgroup C1      NOp   1
                         Standard orientation:                         
 ---------------------------------------------------------------------
 Center     Atomic      Atomic             Coordinates (Angstroms)
 Number     Number       Type             X           Y           Z
 ---------------------------------------------------------------------
      1          6           0        4.360908   -0.593929    0.247151
      2          6           0        3.209888   -1.334195   -0.050633
      3          6           0        2.278663   -0.837872   -0.970744
      4          6           0        2.493752    0.399952   -1.591451
      5          6           0        3.643872    1.142040   -1.293522
      6          6           0        4.578587    0.644377   -0.374940
      7          1           0        5.074059   -0.973383    0.948960
      8          1           0        3.042125   -2.278385    0.423712
      9          1           0        1.779370    0.777824   -2.292931
     10          1           0        3.808608    2.087908   -1.766298
     11          1           0        5.459210    1.209667   -0.147968
     12          6           0        1.016641   -1.653180   -1.299743
     13          1           0        0.900446   -1.716382   -2.361165
     14          1           0        1.110568   -2.637563   -0.892625
     15          6           0       -0.214807   -0.959275   -0.688160
     16          6           0       -1.478146   -1.774541   -1.023282
     17          1           0       -1.590615   -1.836794   -2.086223
     18          1           0       -1.383571   -2.758909   -0.615976
     19          6           0       -2.716616   -1.085794   -0.416471
     20          6           0       -3.422337   -0.132209   -1.162279
     21          6           0       -3.138833   -1.412807    0.880325
     22          6           0       -4.552665    0.490306   -0.615120
     23          1           0       -3.097232    0.120739   -2.149585
     24          6           0       -4.270388   -0.790707    1.426777
     25          1           0       -2.597662   -2.136981    1.453135
     26          6           0       -4.977496    0.160265    0.678879
     27          1           0       -5.092034    1.217015   -1.185663
     28          1           0       -4.594575   -1.042076    2.414830
     29          1           0       -5.841479    0.634746    1.096314
     30          6           0       -0.054188   -0.868646    0.841037
     31          1           0       -0.914321   -0.390669    1.261356
     32          1           0        0.041719   -1.853656    1.248591
     33          6           0       -0.340687    0.458497   -1.273894
     34          1           0       -1.345094    0.619632   -1.604133
     35          1           0        0.327897    0.560482   -2.102894
     36          7           0        1.148253   -0.084567    1.162980
     37          7           0        0.000624    1.450757   -0.245435
     38          6           0        1.813472   -0.331746    2.244397
     39          1           0        1.499994   -1.119997    2.896178
     40          6           0        3.057006    0.509046    2.593150
     41          1           0        3.166857    0.561189    3.656658
     42          1           0        3.926766    0.054340    2.167335
     43          1           0        2.941278    1.496514    2.197962
     44          6           0       -0.625327    2.779162   -0.283920
     45          6           0       -1.950151    3.026968    0.458364
     46          1           0       -1.998252    4.048767    0.769307
     47          1           0       -2.770146    2.813170   -0.194236
     48          1           0       -2.002481    2.390751    1.315812
     49          1           0       -0.160454    3.574452   -0.828794
 ---------------------------------------------------------------------
 Rotational constants (GHZ):           0.5232310           0.1710786           0.1660136
 Standard basis: 6-31G(d) (6D, 7F)
 There are   397 symmetry adapted cartesian basis functions of A   symmetry.
 There are   397 symmetry adapted basis functions of A   symmetry.
   397 basis functions,   748 primitive gaussians,   397 cartesian basis functions
    83 alpha electrons       83 beta electrons
       nuclear repulsion energy      1976.4357640537 Hartrees.
 NAtoms=   49 NActive=   49 NUniq=   49 SFac= 1.00D+00 NAtFMM=   60 NAOKFM=F Big=F
 Integral buffers will be    131072 words long.
 Raffenetti 2 integral format.
 Two-electron integral symmetry is turned on.
 One-electron integrals computed using PRISM.
 NBasis=   397 RedAO= T EigKep=  4.48D-04  NBF=   397
 NBsUse=   397 1.00D-06 EigRej= -1.00D+00 NBFU=   397
 Initial guess from the checkpoint file:  "/home/rtong2/g16/100121/benzCH2CCH2NCHCH3-2.chk"
 B after Tr=     0.000000    0.000000   -0.000000
         Rot=    1.000000   -0.000000   -0.000000    0.000000 Ang=   0.00 deg.
 Initial guess <Sx>= 0.0000 <Sy>= 0.0000 <Sz>= 0.0000 <S**2>= 0.1465 S= 0.1297
 Requested convergence on RMS density matrix=1.00D-08 within 128 cycles.
 Requested convergence on MAX density matrix=1.00D-06.
 Requested convergence on             energy=1.00D-06.
 No special actions if energy rises.
 SCF Done:  E(UB3LYP) =  -925.173195522     A.U. after    1 cycles
            NFock=  1  Conv=0.31D-08     -V/T= 2.0092
 <Sx>= 0.0000 <Sy>= 0.0000 <Sz>= 0.0000 <S**2>= 0.1465 S= 0.1297
 <L.S>=  0.00000000000    
 Annihilation of the first spin contaminant:
 S**2 before annihilation     0.1465,   after     0.0006

 **********************************************************************

            Population analysis using the SCF Density.

 **********************************************************************

 Orbital symmetries:
 Alpha Orbitals:
       Occupied  (A) (A) (A) (A) (A) (A) (A) (A) (A) (A) (A) (A)
                 (A) (A) (A) (A) (A) (A) (A) (A) (A) (A) (A) (A)
                 (A) (A) (A) (A) (A) (A) (A) (A) (A) (A) (A) (A)
                 (A) (A) (A) (A) (A) (A) (A) (A) (A) (A) (A) (A)
                 (A) (A) (A) (A) (A) (A) (A) (A) (A) (A) (A) (A)
                 (A) (A) (A) (A) (A) (A) (A) (A) (A) (A) (A) (A)
                 (A) (A) (A) (A) (A) (A) (A) (A) (A) (A) (A)
       Virtual   (A) (A) (A) (A) (A) (A) (A) (A) (A) (A) (A) (A)
                 (A) (A) (A) (A) (A) (A) (A) (A) (A) (A) (A) (A)
                 (A) (A) (A) (A) (A) (A) (A) (A) (A) (A) (A) (A)
                 (A) (A) (A) (A) (A) (A) (A) (A) (A) (A) (A) (A)
                 (A) (A) (A) (A) (A) (A) (A) (A) (A) (A) (A) (A)
                 (A) (A) (A) (A) (A) (A) (A) (A) (A) (A) (A) (A)
                 (A) (A) (A) (A) (A) (A) (A) (A) (A) (A) (A) (A)
                 (A) (A) (A) (A) (A) (A) (A) (A) (A) (A) (A) (A)
                 (A) (A) (A) (A) (A) (A) (A) (A) (A) (A) (A) (A)
                 (A) (A) (A) (A) (A) (A) (A) (A) (A) (A) (A) (A)
                 (A) (A) (A) (A) (A) (A) (A) (A) (A) (A) (A) (A)
                 (A) (A) (A) (A) (A) (A) (A) (A) (A) (A) (A) (A)
                 (A) (A) (A) (A) (A) (A) (A) (A) (A) (A) (A) (A)
                 (A) (A) (A) (A) (A) (A) (A) (A) (A) (A) (A) (A)
                 (A) (A) (A) (A) (A) (A) (A) (A) (A) (A) (A) (A)
                 (A) (A) (A) (A) (A) (A) (A) (A) (A) (A) (A) (A)
                 (A) (A) (A) (A) (A) (A) (A) (A) (A) (A) (A) (A)
                 (A) (A) (A) (A) (A) (A) (A) (A) (A) (A) (A) (A)
                 (A) (A) (A) (A) (A) (A) (A) (A) (A) (A) (A) (A)
                 (A) (A) (A) (A) (A) (A) (A) (A) (A) (A) (A) (A)
                 (A) (A) (A) (A) (A) (A) (A) (A) (A) (A) (A) (A)
                 (A) (A) (A) (A) (A) (A) (A) (A) (A) (A) (A) (A)
                 (A) (A) (A) (A) (A) (A) (A) (A) (A) (A) (A) (A)
                 (A) (A) (A) (A) (A) (A) (A) (A) (A) (A) (A) (A)
                 (A) (A) (A) (A) (A) (A) (A) (A) (A) (A) (A) (A)
                 (A) (A) (A) (A) (A) (A) (A) (A) (A) (A) (A) (A)
                 (A) (A)
 Beta  Orbitals:
       Occupied  (A) (A) (A) (A) (A) (A) (A) (A) (A) (A) (A) (A)
                 (A) (A) (A) (A) (A) (A) (A) (A) (A) (A) (A) (A)
                 (A) (A) (A) (A) (A) (A) (A) (A) (A) (A) (A) (A)
                 (A) (A) (A) (A) (A) (A) (A) (A) (A) (A) (A) (A)
                 (A) (A) (A) (A) (A) (A) (A) (A) (A) (A) (A) (A)
                 (A) (A) (A) (A) (A) (A) (A) (A) (A) (A) (A) (A)
                 (A) (A) (A) (A) (A) (A) (A) (A) (A) (A) (A)
       Virtual   (A) (A) (A) (A) (A) (A) (A) (A) (A) (A) (A) (A)
                 (A) (A) (A) (A) (A) (A) (A) (A) (A) (A) (A) (A)
                 (A) (A) (A) (A) (A) (A) (A) (A) (A) (A) (A) (A)
                 (A) (A) (A) (A) (A) (A) (A) (A) (A) (A) (A) (A)
                 (A) (A) (A) (A) (A) (A) (A) (A) (A) (A) (A) (A)
                 (A) (A) (A) (A) (A) (A) (A) (A) (A) (A) (A) (A)
                 (A) (A) (A) (A) (A) (A) (A) (A) (A) (A) (A) (A)
                 (A) (A) (A) (A) (A) (A) (A) (A) (A) (A) (A) (A)
                 (A) (A) (A) (A) (A) (A) (A) (A) (A) (A) (A) (A)
                 (A) (A) (A) (A) (A) (A) (A) (A) (A) (A) (A) (A)
                 (A) (A) (A) (A) (A) (A) (A) (A) (A) (A) (A) (A)
                 (A) (A) (A) (A) (A) (A) (A) (A) (A) (A) (A) (A)
                 (A) (A) (A) (A) (A) (A) (A) (A) (A) (A) (A) (A)
                 (A) (A) (A) (A) (A) (A) (A) (A) (A) (A) (A) (A)
                 (A) (A) (A) (A) (A) (A) (A) (A) (A) (A) (A) (A)
                 (A) (A) (A) (A) (A) (A) (A) (A) (A) (A) (A) (A)
                 (A) (A) (A) (A) (A) (A) (A) (A) (A) (A) (A) (A)
                 (A) (A) (A) (A) (A) (A) (A) (A) (A) (A) (A) (A)
                 (A) (A) (A) (A) (A) (A) (A) (A) (A) (A) (A) (A)
                 (A) (A) (A) (A) (A) (A) (A) (A) (A) (A) (A) (A)
                 (A) (A) (A) (A) (A) (A) (A) (A) (A) (A) (A) (A)
                 (A) (A) (A) (A) (A) (A) (A) (A) (A) (A) (A) (A)
                 (A) (A) (A) (A) (A) (A) (A) (A) (A) (A) (A) (A)
                 (A) (A) (A) (A) (A) (A) (A) (A) (A) (A) (A) (A)
                 (A) (A) (A) (A) (A) (A) (A) (A) (A) (A) (A) (A)
                 (A) (A) (A) (A) (A) (A) (A) (A) (A) (A) (A) (A)
                 (A) (A)
 The electronic state is 1-A.
 Alpha  occ. eigenvalues --  -14.31058 -14.28652 -10.24055 -10.20873 -10.19434
 Alpha  occ. eigenvalues --  -10.18946 -10.18901 -10.18900 -10.18732 -10.18647
 Alpha  occ. eigenvalues --  -10.18631 -10.18613 -10.18323 -10.17961 -10.17462
 Alpha  occ. eigenvalues --  -10.17446 -10.16987 -10.16935 -10.16705 -10.16696
 Alpha  occ. eigenvalues --  -10.16648 -10.16053 -10.15778  -0.89969  -0.85707
 Alpha  occ. eigenvalues --   -0.84261  -0.82953  -0.80239  -0.76065  -0.74462
 Alpha  occ. eigenvalues --   -0.73734  -0.72853  -0.72526  -0.71540  -0.66957
 Alpha  occ. eigenvalues --   -0.65932  -0.65057  -0.60699  -0.59124  -0.58852
 Alpha  occ. eigenvalues --   -0.56864  -0.55745  -0.54605  -0.53342  -0.50908
 Alpha  occ. eigenvalues --   -0.49614  -0.47740  -0.47192  -0.46391  -0.45727
 Alpha  occ. eigenvalues --   -0.45250  -0.44351  -0.44028  -0.42361  -0.42027
 Alpha  occ. eigenvalues --   -0.41685  -0.41431  -0.40999  -0.40485  -0.40072
 Alpha  occ. eigenvalues --   -0.39118  -0.38510  -0.37878  -0.37572  -0.37495
 Alpha  occ. eigenvalues --   -0.37245  -0.35832  -0.35625  -0.34264  -0.33851
 Alpha  occ. eigenvalues --   -0.33424  -0.32366  -0.32059  -0.31768  -0.29715
 Alpha  occ. eigenvalues --   -0.27784  -0.26868  -0.24760  -0.23762  -0.22282
 Alpha  occ. eigenvalues --   -0.21068  -0.19457  -0.16049
 Alpha virt. eigenvalues --   -0.05500  -0.00410  -0.00218   0.00487   0.02023
 Alpha virt. eigenvalues --    0.03648   0.08850   0.10088   0.11084   0.12051
 Alpha virt. eigenvalues --    0.12406   0.13284   0.13564   0.14504   0.14832
 Alpha virt. eigenvalues --    0.14961   0.15123   0.16258   0.16435   0.16705
 Alpha virt. eigenvalues --    0.17260   0.17544   0.18300   0.18394   0.18618
 Alpha virt. eigenvalues --    0.19247   0.19414   0.19693   0.20509   0.21495
 Alpha virt. eigenvalues --    0.21915   0.22447   0.22953   0.23910   0.24611
 Alpha virt. eigenvalues --    0.25826   0.26426   0.26598   0.27300   0.27563
 Alpha virt. eigenvalues --    0.28248   0.29955   0.30422   0.30869   0.31857
 Alpha virt. eigenvalues --    0.32318   0.33291   0.33433   0.34652   0.35282
 Alpha virt. eigenvalues --    0.36845   0.36978   0.38369   0.39907   0.47068
 Alpha virt. eigenvalues --    0.48040   0.48605   0.50107   0.52245   0.52668
 Alpha virt. eigenvalues --    0.53205   0.54105   0.54241   0.54544   0.55565
 Alpha virt. eigenvalues --    0.56145   0.56309   0.56643   0.57042   0.57571
 Alpha virt. eigenvalues --    0.58107   0.58603   0.58914   0.59125   0.59468
 Alpha virt. eigenvalues --    0.60454   0.60701   0.61400   0.61526   0.61783
 Alpha virt. eigenvalues --    0.62368   0.62509   0.63496   0.63624   0.64150
 Alpha virt. eigenvalues --    0.64732   0.65169   0.66612   0.67190   0.68415
 Alpha virt. eigenvalues --    0.68810   0.69829   0.70296   0.72047   0.73200
 Alpha virt. eigenvalues --    0.74313   0.74849   0.76010   0.76575   0.78645
 Alpha virt. eigenvalues --    0.79332   0.80678   0.81505   0.82318   0.83017
 Alpha virt. eigenvalues --    0.83162   0.83840   0.84413   0.85154   0.85339
 Alpha virt. eigenvalues --    0.85847   0.86412   0.86908   0.86982   0.87925
 Alpha virt. eigenvalues --    0.88701   0.89336   0.89597   0.90030   0.90992
 Alpha virt. eigenvalues --    0.91976   0.92341   0.92467   0.93050   0.93492
 Alpha virt. eigenvalues --    0.93781   0.95138   0.95371   0.95851   0.95939
 Alpha virt. eigenvalues --    0.96730   0.97445   0.98564   0.99263   1.00404
 Alpha virt. eigenvalues --    1.00854   1.01453   1.01548   1.03302   1.04316
 Alpha virt. eigenvalues --    1.04985   1.07128   1.07475   1.08156   1.10712
 Alpha virt. eigenvalues --    1.11535   1.13024   1.14937   1.15728   1.16362
 Alpha virt. eigenvalues --    1.17140   1.18576   1.19514   1.20138   1.21328
 Alpha virt. eigenvalues --    1.22836   1.24540   1.27318   1.29855   1.30507
 Alpha virt. eigenvalues --    1.31698   1.33303   1.35063   1.36999   1.38920
 Alpha virt. eigenvalues --    1.40300   1.41636   1.44588   1.44904   1.45795
 Alpha virt. eigenvalues --    1.47021   1.47585   1.48414   1.49345   1.50175
 Alpha virt. eigenvalues --    1.50550   1.51204   1.51854   1.52694   1.53951
 Alpha virt. eigenvalues --    1.54657   1.55738   1.57162   1.57904   1.59203
 Alpha virt. eigenvalues --    1.63018   1.64005   1.66802   1.71845   1.72710
 Alpha virt. eigenvalues --    1.74625   1.77090   1.78368   1.80381   1.81356
 Alpha virt. eigenvalues --    1.81927   1.82850   1.83420   1.84438   1.85474
 Alpha virt. eigenvalues --    1.86293   1.88584   1.89289   1.91209   1.91366
 Alpha virt. eigenvalues --    1.93580   1.94453   1.95351   1.96527   1.96801
 Alpha virt. eigenvalues --    1.98203   1.99690   2.00194   2.01176   2.01869
 Alpha virt. eigenvalues --    2.02706   2.03203   2.04726   2.05315   2.05980
 Alpha virt. eigenvalues --    2.06555   2.08012   2.09017   2.11388   2.13048
 Alpha virt. eigenvalues --    2.13922   2.14802   2.15896   2.16153   2.17954
 Alpha virt. eigenvalues --    2.18416   2.19065   2.20190   2.20933   2.22496
 Alpha virt. eigenvalues --    2.23094   2.24990   2.25562   2.27328   2.27778
 Alpha virt. eigenvalues --    2.29196   2.30645   2.30914   2.31557   2.32129
 Alpha virt. eigenvalues --    2.33701   2.34668   2.35575   2.36878   2.38631
 Alpha virt. eigenvalues --    2.39548   2.40604   2.41554   2.44330   2.46359
 Alpha virt. eigenvalues --    2.47873   2.49000   2.50003   2.51461   2.56445
 Alpha virt. eigenvalues --    2.57899   2.59208   2.61161   2.62633   2.64494
 Alpha virt. eigenvalues --    2.65066   2.66137   2.67732   2.68308   2.72375
 Alpha virt. eigenvalues --    2.72886   2.73231   2.74754   2.75660   2.76004
 Alpha virt. eigenvalues --    2.76648   2.77312   2.77638   2.80098   2.81108
 Alpha virt. eigenvalues --    2.82142   2.83950   2.89713   2.93591   2.94602
 Alpha virt. eigenvalues --    3.02936   3.04285   3.06736   3.08256   3.40778
 Alpha virt. eigenvalues --    3.43977   3.96862   4.06446   4.10176   4.13056
 Alpha virt. eigenvalues --    4.15512   4.16291   4.18112   4.21993   4.24487
 Alpha virt. eigenvalues --    4.28696   4.34000   4.36476   4.37641   4.38690
 Alpha virt. eigenvalues --    4.41116   4.44519   4.46594   4.52327   4.55350
 Alpha virt. eigenvalues --    4.65476   4.72010   4.81129   4.87655
  Beta  occ. eigenvalues --  -14.30980 -14.28197 -10.24411 -10.20874 -10.19433
  Beta  occ. eigenvalues --  -10.18945 -10.18900 -10.18900 -10.18732 -10.18646
  Beta  occ. eigenvalues --  -10.18632 -10.18614 -10.18319 -10.17959 -10.17446
  Beta  occ. eigenvalues --  -10.17424 -10.16988 -10.16934 -10.16705 -10.16696
  Beta  occ. eigenvalues --  -10.16648 -10.16054 -10.15777  -0.89878  -0.85662
  Beta  occ. eigenvalues --   -0.84124  -0.82891  -0.80208  -0.76072  -0.74461
  Beta  occ. eigenvalues --   -0.73811  -0.72848  -0.72522  -0.71509  -0.66951
  Beta  occ. eigenvalues --   -0.65923  -0.65023  -0.60704  -0.59121  -0.58897
  Beta  occ. eigenvalues --   -0.56906  -0.55865  -0.54590  -0.53308  -0.50908
  Beta  occ. eigenvalues --   -0.49576  -0.47708  -0.47173  -0.46389  -0.45682
  Beta  occ. eigenvalues --   -0.45246  -0.44317  -0.44008  -0.42416  -0.42134
  Beta  occ. eigenvalues --   -0.41773  -0.41417  -0.41007  -0.40446  -0.40065
  Beta  occ. eigenvalues --   -0.39102  -0.38474  -0.37872  -0.37557  -0.37479
  Beta  occ. eigenvalues --   -0.37230  -0.35801  -0.35595  -0.34254  -0.33842
  Beta  occ. eigenvalues --   -0.33414  -0.32324  -0.32028  -0.31755  -0.29610
  Beta  occ. eigenvalues --   -0.27695  -0.26363  -0.24746  -0.23753  -0.22287
  Beta  occ. eigenvalues --   -0.21034  -0.19397  -0.15197
  Beta virt. eigenvalues --   -0.06430  -0.00370  -0.00219   0.00502   0.02047
  Beta virt. eigenvalues --    0.03665   0.08852   0.10085   0.11090   0.12052
  Beta virt. eigenvalues --    0.12405   0.13227   0.13531   0.14475   0.14769
  Beta virt. eigenvalues --    0.14885   0.15126   0.16233   0.16431   0.16702
  Beta virt. eigenvalues --    0.17283   0.17526   0.18302   0.18396   0.18613
  Beta virt. eigenvalues --    0.19225   0.19409   0.19673   0.20516   0.21503
  Beta virt. eigenvalues --    0.21915   0.22447   0.22937   0.23945   0.24589
  Beta virt. eigenvalues --    0.25794   0.26386   0.26600   0.27254   0.27563
  Beta virt. eigenvalues --    0.28291   0.29903   0.30425   0.30878   0.31857
  Beta virt. eigenvalues --    0.32321   0.33334   0.33499   0.34651   0.35284
  Beta virt. eigenvalues --    0.36857   0.36980   0.38406   0.39951   0.47070
  Beta virt. eigenvalues --    0.48037   0.48591   0.50118   0.52234   0.52681
  Beta virt. eigenvalues --    0.53217   0.54080   0.54219   0.54559   0.55455
  Beta virt. eigenvalues --    0.56136   0.56273   0.56533   0.57009   0.57634
  Beta virt. eigenvalues --    0.57940   0.58595   0.58895   0.59145   0.59497
  Beta virt. eigenvalues --    0.60454   0.60691   0.61348   0.61422   0.61764
  Beta virt. eigenvalues --    0.62309   0.62494   0.63444   0.63622   0.64018
  Beta virt. eigenvalues --    0.64530   0.65161   0.66596   0.67183   0.68401
  Beta virt. eigenvalues --    0.68802   0.69835   0.70266   0.72037   0.73178
  Beta virt. eigenvalues --    0.74260   0.74818   0.76040   0.76535   0.78589
  Beta virt. eigenvalues --    0.79387   0.80684   0.81541   0.82374   0.83024
  Beta virt. eigenvalues --    0.83212   0.83851   0.84417   0.85166   0.85354
  Beta virt. eigenvalues --    0.85868   0.86423   0.86932   0.87059   0.87935
  Beta virt. eigenvalues --    0.88666   0.89307   0.89575   0.90012   0.90884
  Beta virt. eigenvalues --    0.91976   0.92345   0.92454   0.92980   0.93496
  Beta virt. eigenvalues --    0.93801   0.95148   0.95360   0.95862   0.96008
  Beta virt. eigenvalues --    0.96714   0.97433   0.98554   0.99368   1.00422
  Beta virt. eigenvalues --    1.00856   1.01461   1.01563   1.03288   1.04355
  Beta virt. eigenvalues --    1.05044   1.07141   1.07636   1.08166   1.10769
  Beta virt. eigenvalues --    1.11514   1.13040   1.14981   1.15778   1.16384
  Beta virt. eigenvalues --    1.17212   1.18577   1.19586   1.20106   1.21317
  Beta virt. eigenvalues --    1.22825   1.24475   1.27374   1.29866   1.30514
  Beta virt. eigenvalues --    1.31705   1.33445   1.35092   1.36994   1.38945
  Beta virt. eigenvalues --    1.40264   1.41648   1.44586   1.44881   1.45739
  Beta virt. eigenvalues --    1.46991   1.47586   1.48423   1.49314   1.49946
  Beta virt. eigenvalues --    1.50429   1.51209   1.51867   1.52730   1.53961
  Beta virt. eigenvalues --    1.54664   1.55750   1.57184   1.57957   1.59215
  Beta virt. eigenvalues --    1.63038   1.64063   1.66857   1.71874   1.72694
  Beta virt. eigenvalues --    1.74648   1.77152   1.78330   1.80408   1.81376
  Beta virt. eigenvalues --    1.81892   1.82894   1.83439   1.84573   1.85531
  Beta virt. eigenvalues --    1.86262   1.88525   1.89292   1.91216   1.91344
  Beta virt. eigenvalues --    1.93582   1.94411   1.95313   1.95868   1.96718
  Beta virt. eigenvalues --    1.98290   1.99804   2.00243   2.01156   2.01941
  Beta virt. eigenvalues --    2.02734   2.03096   2.04735   2.05295   2.05967
  Beta virt. eigenvalues --    2.06402   2.08020   2.09039   2.11372   2.13000
  Beta virt. eigenvalues --    2.13755   2.14817   2.15942   2.16234   2.17973
  Beta virt. eigenvalues --    2.18497   2.19161   2.20204   2.20961   2.22548
  Beta virt. eigenvalues --    2.23135   2.25028   2.25585   2.27304   2.27803
  Beta virt. eigenvalues --    2.29211   2.30655   2.30923   2.31543   2.32156
  Beta virt. eigenvalues --    2.33773   2.34606   2.35589   2.36888   2.38654
  Beta virt. eigenvalues --    2.39512   2.40630   2.41547   2.44340   2.46377
  Beta virt. eigenvalues --    2.47863   2.48881   2.49915   2.51449   2.56471
  Beta virt. eigenvalues --    2.57908   2.59228   2.61169   2.62618   2.64482
  Beta virt. eigenvalues --    2.65061   2.66138   2.67733   2.68406   2.72401
  Beta virt. eigenvalues --    2.72894   2.73245   2.74766   2.75705   2.76047
  Beta virt. eigenvalues --    2.76662   2.77331   2.77651   2.80101   2.81147
  Beta virt. eigenvalues --    2.82169   2.84064   2.89983   2.93611   2.94684
  Beta virt. eigenvalues --    3.02980   3.04300   3.06788   3.08274   3.40779
  Beta virt. eigenvalues --    3.43979   3.97262   4.06521   4.10184   4.12977
  Beta virt. eigenvalues --    4.15527   4.16301   4.18015   4.21993   4.24499
  Beta virt. eigenvalues --    4.28712   4.34019   4.36428   4.37522   4.38649
  Beta virt. eigenvalues --    4.40964   4.44524   4.46616   4.52345   4.55401
  Beta virt. eigenvalues --    4.65499   4.72012   4.81138   4.87672
          Condensed to atoms (all electrons):
               1          2          3          4          5          6
     1  C    4.948574   0.515794  -0.016374  -0.045917  -0.023581   0.539501
     2  C    0.515794   4.980985   0.553082  -0.040589  -0.045938  -0.036571
     3  C   -0.016374   0.553082   4.671951   0.549778  -0.015858  -0.036136
     4  C   -0.045917  -0.040589   0.549778   4.936271   0.515611  -0.033991
     5  C   -0.023581  -0.045938  -0.015858   0.515611   4.871595   0.553802
     6  C    0.539501  -0.036571  -0.036136  -0.033991   0.553802   4.863004
     7  H    0.354075  -0.043683   0.003869   0.000832   0.004634  -0.046390
     8  H   -0.051943   0.352906  -0.042665   0.006284   0.000342   0.004991
     9  H    0.000565   0.005959  -0.052772   0.355333  -0.040377   0.004823
    10  H    0.004930   0.000939   0.004002  -0.040465   0.354920  -0.046443
    11  H   -0.048681   0.004999   0.000721   0.005128  -0.043856   0.358372
    12  C    0.006700  -0.047552   0.354580  -0.054571   0.006245   0.000466
    13  H   -0.000223   0.003256  -0.026833  -0.006765   0.000065   0.000012
    14  H    0.000193  -0.007672  -0.030907   0.005343  -0.000136  -0.000008
    15  C   -0.000062  -0.004042  -0.037167  -0.008421   0.000062   0.000030
    16  C    0.000003  -0.000097   0.004120   0.000211   0.000005  -0.000000
    17  H   -0.000000   0.000001   0.000071  -0.000026   0.000000  -0.000000
    18  H    0.000000  -0.000007   0.000080   0.000004  -0.000000   0.000000
    19  C   -0.000000  -0.000000  -0.000143  -0.000006   0.000000   0.000000
    20  C    0.000000  -0.000000  -0.000003  -0.000002  -0.000000   0.000000
    21  C   -0.000000  -0.000000  -0.000004  -0.000000  -0.000000   0.000000
    22  C   -0.000000   0.000000  -0.000000  -0.000000  -0.000000   0.000000
    23  H    0.000000  -0.000000   0.000001  -0.000001   0.000000  -0.000000
    24  C   -0.000000  -0.000000  -0.000000   0.000000  -0.000000   0.000000
    25  H    0.000000  -0.000000   0.000001   0.000000   0.000000   0.000000
    26  C   -0.000000   0.000000   0.000000   0.000000   0.000000  -0.000000
    27  H    0.000000   0.000000   0.000000   0.000000   0.000000  -0.000000
    28  H    0.000000   0.000000   0.000000   0.000000   0.000000  -0.000000
    29  H   -0.000000  -0.000000  -0.000000   0.000000  -0.000000   0.000000
    30  C    0.000038   0.003598  -0.008759  -0.001350   0.000102  -0.000016
    31  H   -0.000007   0.000030   0.000082  -0.000027  -0.000000   0.000001
    32  H    0.000010  -0.000764   0.000439   0.000070   0.000001   0.000002
    33  C    0.000027  -0.000665  -0.012597   0.000135   0.000583  -0.000061
    34  H   -0.000001   0.000008   0.001023   0.000627  -0.000056   0.000000
    35  H   -0.000001  -0.000394  -0.011777  -0.010840   0.003175  -0.000052
    36  N   -0.004403  -0.010570  -0.024044  -0.004493  -0.000427   0.002111
    37  N    0.000041   0.000035  -0.000652   0.001549  -0.001910  -0.000010
    38  C   -0.003867  -0.006177  -0.008034  -0.000094  -0.000093   0.000360
    39  H   -0.000248  -0.002102   0.000390  -0.000011  -0.000008   0.000021
    40  C   -0.025185  -0.008085   0.000692   0.000220   0.000447  -0.006461
    41  H    0.000842   0.000306  -0.000051  -0.000010   0.000000   0.000499
    42  H    0.019869  -0.002366   0.000703  -0.000150  -0.000416  -0.004560
    43  H   -0.000288  -0.000590  -0.000167   0.000001   0.000636   0.002354
    44  C    0.000001  -0.000001  -0.000002   0.000350  -0.000096  -0.000002
    45  C    0.000000  -0.000000  -0.000001   0.000023  -0.000002   0.000000
    46  H   -0.000000  -0.000000   0.000000  -0.000000   0.000000   0.000000
    47  H    0.000000   0.000000   0.000000  -0.000000  -0.000000  -0.000000
    48  H   -0.000000  -0.000000   0.000000  -0.000001   0.000000   0.000000
    49  H   -0.000000  -0.000000   0.000003  -0.000209   0.000121  -0.000000
               7          8          9         10         11         12
     1  C    0.354075  -0.051943   0.000565   0.004930  -0.048681   0.006700
     2  C   -0.043683   0.352906   0.005959   0.000939   0.004999  -0.047552
     3  C    0.003869  -0.042665  -0.052772   0.004002   0.000721   0.354580
     4  C    0.000832   0.006284   0.355333  -0.040465   0.005128  -0.054571
     5  C    0.004634   0.000342  -0.040377   0.354920  -0.043856   0.006245
     6  C   -0.046390   0.004991   0.004823  -0.046443   0.358372   0.000466
     7  H    0.611668  -0.005394   0.000019  -0.000200  -0.005730  -0.000191
     8  H   -0.005394   0.626676  -0.000201   0.000019  -0.000196  -0.011818
     9  H    0.000019  -0.000201   0.624540  -0.005921  -0.000205  -0.009201
    10  H   -0.000200   0.000019  -0.005921   0.617946  -0.005953  -0.000185
    11  H   -0.005730  -0.000196  -0.000205  -0.005953   0.620132   0.000007
    12  C   -0.000191  -0.011818  -0.009201  -0.000185   0.000007   5.238053
    13  H    0.000004   0.000066   0.002126   0.000000  -0.000000   0.355774
    14  H   -0.000010   0.007730  -0.000046   0.000003  -0.000000   0.346830
    15  C   -0.000001   0.000170  -0.000076  -0.000010   0.000000   0.345891
    16  C   -0.000000  -0.000026  -0.000149  -0.000000   0.000000  -0.055843
    17  H    0.000000   0.000000  -0.000020   0.000000   0.000000  -0.006243
    18  H   -0.000000  -0.000003   0.000002  -0.000000  -0.000000  -0.005855
    19  C    0.000000   0.000000  -0.000001   0.000000  -0.000000   0.004143
    20  C    0.000000  -0.000000  -0.000001  -0.000000   0.000000   0.000045
    21  C    0.000000   0.000000   0.000000   0.000000  -0.000000   0.000028
    22  C    0.000000   0.000000   0.000000   0.000000   0.000000   0.000003
    23  H   -0.000000  -0.000000  -0.000002  -0.000000   0.000000  -0.000094
    24  C    0.000000   0.000000   0.000000   0.000000  -0.000000   0.000004
    25  H   -0.000000  -0.000000  -0.000000  -0.000000   0.000000  -0.000098
    26  C   -0.000000  -0.000000   0.000000  -0.000000   0.000000  -0.000000
    27  H   -0.000000  -0.000000  -0.000000  -0.000000   0.000000  -0.000000
    28  H   -0.000000  -0.000000  -0.000000  -0.000000  -0.000000  -0.000000
    29  H    0.000000   0.000000   0.000000  -0.000000  -0.000000   0.000000
    30  C    0.000002   0.000022   0.000124   0.000002  -0.000000  -0.049915
    31  H    0.000000   0.000008  -0.000003  -0.000000  -0.000000   0.006118
    32  H   -0.000001   0.000609  -0.000005  -0.000000  -0.000000  -0.011061
    33  C    0.000000   0.000033  -0.014884   0.000055  -0.000000  -0.041395
    34  H    0.000000   0.000000   0.001086   0.000000  -0.000000   0.004826
    35  H    0.000000  -0.000000  -0.006028   0.000063   0.000001  -0.000087
    36  N    0.000096  -0.000378   0.000315  -0.000018  -0.000002  -0.014541
    37  N   -0.000000  -0.000006   0.001233  -0.000044  -0.000001   0.000154
    38  C   -0.000217   0.001162  -0.000023  -0.000006   0.000014   0.002354
    39  H   -0.000000   0.000427   0.000001  -0.000000   0.000000  -0.000337
    40  C   -0.005498  -0.000255  -0.000006   0.000023   0.000109   0.000010
[...]
 .00008405,0.00008556,0.00002289,0.00001900,0.00001198,-0.00000558,-0.0
 0003306,0.00001342,0.00000907,-0.00001574,-0.00000859,0.00001239,0.000
 01388,0.00002098,-0.00001820,0.00002313,-0.00000337,-0.00000067,-0.000
 00896,-0.00001028,0.00000376,0.00000386,-0.00000039,-0.00001322,0.0000
 0074,0.00000596,-0.00000006,-0.00000164,-0.00000582,-0.00000792,-0.000
 00054,0.00000178,-0.00000646,-0.00000354,-0.00000210,0.00008274,-0.000
 08574,-0.00004386,0.00005597,0.00002056,-0.00001726,-0.00003292,0.0000
 4026,0.00003274,-0.00010313,0.00154474,0.00167427,0.00009968,0.0001046
 7,-0.00016402,0.00018294,-0.00017929,0.00010322,-0.00001432,0.00007891
 ,0.00003885,0.00140009,-0.00288240,0.00024958,0.00001105,-0.00002964,-
 0.00000568,-0.00000775,0.00000476,-0.00000707,-0.00001146,0.00000444,0
 .00002138,0.00000118,0.00000990,-0.00000380,-0.00000010,0.00001307,0.0
 0000241,0.00000008,0.00000772,-0.00000790,-0.01629651,-0.01674226,-0.0
 0251210,-0.12278225,-0.20383784,-0.03127130,0.13708709,0.22102320,0.00
 011023,-0.00016111,0.00035234,0.00032836,0.00016959,0.00003433,0.00004
 897,0.00024813,-0.00015727,0.00007348,-0.00007296,-0.00004135,-0.00003
 549,-0.00013914,0.00000639,-0.00047060,0.00017960,0.00013693,-0.000069
 51,-0.00022936,-0.00014693,0.00006217,0.00000492,-0.00007562,0.0000306
 9,-0.00003371,0.00003017,0.00002682,-0.00003139,0.00001445,0.00004046,
 0.00001522,-0.00000955,0.00009788,0.00004388,-0.00001340,-0.00002064,-
 0.00002521,0.00001208,-0.00004118,-0.00004253,-0.00001586,-0.00021465,
 0.00068844,0.00002323,0.00004502,-0.00014452,-0.00023851,-0.00000018,-
 0.00000749,0.00002230,0.00003034,0.00008462,-0.00008040,-0.00001695,-0
 .00002030,-0.00000774,0.00000347,0.00001277,-0.00000497,-0.00000201,0.
 00000959,0.00000770,-0.00000506,-0.00000888,-0.00000949,0.00000542,-0.
 00001137,0.00000082,0.00000095,0.00000205,0.00000539,-0.00000206,-0.00
 000029,-0.00000183,0.00000858,0.00000179,-0.00000097,-0.00000003,0.000
 00286,0.00000180,0.00000329,0.00000093,-0.00000067,0.00000245,0.000001
 87,-0.00000021,-0.00005353,0.00009808,0.00002490,-0.00004145,-0.000016
 34,0.00001050,0.00001966,-0.00003817,-0.00001444,-0.00036162,-0.001852
 52,-0.00238690,-0.00003448,-0.00024621,0.00028022,-0.00016385,0.000177
 13,-0.00010812,-0.00004057,-0.00006661,0.00000377,-0.00069861,0.003318
 50,-0.00131015,0.00001985,-0.00001241,-0.00001994,-0.00000474,-0.00000
 745,0.00002280,0.00001471,0.00001020,-0.00002876,-0.00000991,-0.000006
 81,0.00000522,0.00000096,-0.00000945,0.00000218,0.00000612,-0.00001794
 ,0.00000732,0.01882092,0.02020724,0.00342458,-0.02535170,-0.02962794,-
 0.04917421,0.02725803,0.03170764,0.05470508,-0.00002165,-0.00000059,-0
 .00006448,-0.00007690,0.00000073,-0.00000690,0.00004306,-0.00002609,0.
 00001892,-0.00001877,0.00003214,0.00000758,0.00000957,0.00001167,0.000
 01292,0.00004760,-0.00002435,-0.00002480,0.00000405,0.00003570,0.00001
 664,-0.00000940,0.00000069,-0.00001197,0.00000175,-0.00000031,-0.00000
 385,-0.00001197,0.00000474,-0.00000903,-0.00001255,-0.00001344,-0.0000
 0421,0.00001086,-0.00000804,0.00000106,0.00000235,-0.00000025,-0.00000
 142,-0.00000917,-0.00001028,-0.00001166,-0.00011967,0.00004842,0.00000
 447,0.00001882,-0.00001351,-0.00000507,-0.00000220,-0.00000324,0.00000
 344,0.00000039,0.00000581,-0.00000928,0.00000852,0.00001026,-0.0000010
 2,0.00000307,0.00001420,-0.00001053,-0.00001253,0.00000095,0.00000360,
 -0.00001141,-0.00000247,-0.00000789,0.00000960,-0.00000612,0.00000415,
 0.00000436,0.00000639,0.00000487,0.00000115,-0.00000148,-0.00000475,0.
 00000347,-0.00000456,-0.00000732,0.00000108,-0.00000451,0.00000155,0.0
 0000181,-0.00000010,0.00000006,0.00000056,-0.00000139,0.00000141,-0.00
 002819,0.00006277,0.00000246,-0.00000498,0.00000720,-0.00000043,0.0000
 0017,-0.00001374,0.00000695,0.00059168,-0.00013784,0.00018580,-0.00004
 761,0.00009723,-0.00012734,-0.00002900,-0.00007658,-0.00001211,0.00004
 262,-0.00004980,0.00006256,0.00034491,-0.00003456,0.00057056,0.0000148
 6,0.00000645,-0.00003114,-0.00001611,-0.00000938,0.00000095,0.00002385
 ,0.00000824,-0.00000324,0.00000278,-0.00000565,-0.00000399,-0.00000476
 ,-0.00000268,0.00001134,-0.00001296,-0.00001492,-0.00000933,0.00013563
 ,-0.00440995,-0.00328077,-0.05993446,0.02406309,0.04663989,0.00420929,
 -0.00752886,-0.01960388,0.05834592,-0.00006827,-0.00005709,-0.00006980
 ,-0.00002189,0.00000691,-0.00005485,-0.00001897,-0.00008721,0.00004239
 ,-0.00003260,0.00006259,0.00002268,-0.00000344,0.00001670,0.00000041,0
 .00009649,-0.00001370,-0.00008041,0.00003744,0.00011047,0.00003072,-0.
 00003084,-0.00001939,0.00005377,-0.00001260,0.00001203,-0.00001046,-0.
 00000757,0.00001351,-0.00000573,-0.00000627,-0.00000570,0.00000246,-0.
 00004322,0.00001071,0.00002138,0.00000667,0.00000984,-0.00000010,0.000
 02092,0.00001667,0.00001474,0.00004363,0.00017277,-0.00024469,0.000013
 73,0.00000818,-0.00000714,-0.00000725,0.00000834,-0.00001028,-0.000008
 61,-0.00000394,0.00002101,0.00000184,0.00000517,0.00001011,0.00000379,
 -0.00003165,0.00000412,0.00002228,-0.00000116,-0.00000640,0.00001347,0
 .00001361,0.00001551,-0.00001941,0.00001809,0.00000647,-0.00001083,-0.
 00001151,-0.00000672,-0.00000086,0.00000181,0.00000252,-0.00001449,0.0
 0000628,0.00000539,0.00000012,-0.00000546,-0.00000058,-0.00000220,-0.0
 0000124,0.00000074,-0.00000342,-0.00000131,0.00000048,0.00005941,-0.00
 003264,0.00000172,0.00003298,0.00000041,-0.00000775,-0.00001120,0.0000
 2135,0.00000354,-0.00120437,-0.00216511,-0.00149970,0.00012133,-0.0005
 1062,0.00054356,0.00005512,-0.00001613,0.00006287,-0.00002815,0.000091
 69,0.00000001,0.00140428,-0.00129273,0.00277021,-0.00001378,-0.0000311
 1,0.00002602,0.00000165,0.00001402,-0.00000274,-0.00002625,-0.00000842
 ,0.00002131,0.00000213,0.00000856,-0.00000035,0.00000357,0.00000775,-0
 .00000961,0.00000627,0.00001512,0.00000380,-0.00778429,0.01126728,0.02
 398616,0.02354714,-0.08235734,-0.08725359,0.00630287,-0.01003134,-0.02
 428246,-0.02304685,0.08937767,-0.00001769,0.00000985,-0.00006695,-0.00
 001578,-0.00001262,0.00001726,-0.00000812,0.00001936,0.00000170,0.0000
 0559,-0.00002547,-0.00002944,0.00001443,0.00001306,0.00000691,0.000037
 30,-0.00000502,0.00000505,0.00001162,0.00001286,0.00001099,-0.00000945
 ,0.00002835,0.00002787,0.00000811,0.00000563,0.00000419,-0.00002538,0.
 00000704,-0.00000857,-0.00002387,-0.00001981,0.00000167,0.00005453,-0.
 00000477,-0.00000470,-0.00001379,0.00000375,-0.00001467,-0.00001704,-0
 .00002719,-0.00002284,-0.00010360,-0.00010957,0.00028507,0.00000045,-0
 .00004665,-0.00002983,0.00000868,-0.00000774,0.00001810,0.00001985,0.0
 0002422,-0.00003854,-0.00003560,-0.00002327,-0.00002894,0.00001292,0.0
 0005183,-0.00000868,-0.00001592,0.00001819,0.00000858,-0.00001585,-0.0
 0002543,-0.00002668,0.00002406,-0.00003211,-0.00000976,0.00000434,0.00
 001493,0.00001196,-0.00000557,-0.00000448,0.00000665,0.00002353,-0.000
 00178,-0.00000395,0.00000002,0.00001416,0.00000612,0.00000838,0.000001
 55,-0.00000219,0.00000979,0.00000668,0.00000098,-0.00009290,-0.0000063
 1,0.00002502,-0.00004988,-0.00001578,0.00002412,0.00003401,-0.00002018
 ,-0.00003966,0.00112391,0.00187156,0.00147658,-0.00014980,0.00046360,-
 0.00055959,-0.00012508,0.00011256,-0.00011257,0.00009058,-0.00007720,-
 0.00010218,-0.00271997,0.00110770,-0.00300815,-0.00004549,0.00008576,0
 .00003657,0.00002759,-0.00000251,-0.00002221,0.00000431,-0.00001721,-0
 .00000824,0.00000855,-0.00001038,0.00000180,-0.00000195,-0.00001167,-0
 .00000520,-0.00000522,0.00000878,0.00000284,0.00797916,-0.00880239,-0.
 02032409,0.04736674,-0.08958328,-0.25825074,0.00070956,-0.00237285,-0.
 00437276,-0.05358761,0.09572562,0.28259780,-0.00001760,0.00005252,-0.0
 0007480,-0.00010631,-0.00001022,0.00003863,-0.00002126,0.00002703,0.00
 000457,0.00000722,-0.00005602,-0.00003060,0.00004804,-0.00004043,-0.00
 003213,0.00001517,-0.00001797,-0.00004129,-0.00002945,-0.00001012,0.00
 001862,0.00001842,-0.00000864,-0.00006375,0.00000903,0.00000087,0.0000
 0764,0.00000697,0.00000027,0.00001040,0.00001919,0.00001255,0.00001235
 ,0.00001287,0.00000105,0.00000599,0.00000126,-0.00000283,-0.00000280,-
 0.00000150,-0.00000467,-0.00002333,-0.00004577,0.00006578,0.00002170,0
 .00001127,-0.00002106,-0.00002754,0.00000327,-0.00000601,0.00000613,0.
 00000361,0.00001462,-0.00001610,-0.00000648,-0.00000423,-0.00000957,-0
 .00000279,0.00001242,0.00000083,-0.00000336,0.00000509,0.00000679,-0.0
 0000350,-0.00000607,-0.00000651,0.00000738,-0.00000769,-0.00000007,0.0
 0000308,0.00000272,0.00000367,-0.00000107,-0.00000135,-0.00000295,0.00
 000616,-0.00000117,-0.00000183,-0.00000124,0.00000119,0.00000106,0.000
 00372,0.00000114,-0.00000169,0.00000281,0.00000233,-0.00000006,-0.0000
 4543,0.00009380,-0.00000709,-0.00001705,-0.00000897,0.00000298,0.00000
 804,-0.00003025,-0.00000646,0.00055745,-0.00034332,0.00013939,-0.00000
 779,0.00003741,-0.00003742,-0.00012349,-0.00017226,0.00023128,0.000050
 44,-0.00007552,0.00006191,0.00131303,-0.00151370,0.00075972,-0.0000012
 2,0.00002912,-0.00001318,-0.00001645,-0.00001532,0.00000209,0.00003787
 ,0.00000759,-0.00001900,0.00000313,-0.00000823,-0.00000013,-0.00000938
 ,-0.00000713,0.00001459,-0.00001503,-0.00001557,-0.00001149,-0.0055718
 2,0.00202904,-0.00036134,-0.29574916,0.08246303,0.00498060,-0.01595651
 ,0.00672272,0.00085701,-0.00343299,0.00051219,0.00003640,0.31823734,-0
 .00000605,0.00001695,-0.00005494,-0.00004783,-0.00005122,0.00001997,0.
 00003405,0.00002416,-0.00001496,0.00001387,0.00004984,0.00000328,-0.00
 000896,-0.00003031,0.00003606,0.00000247,-0.00003228,-0.00002377,-0.00
 002262,0.00002673,0.00001743,0.00000525,0.00001373,-0.00002614,0.00000
 258,-0.00000052,-0.00001131,-0.00000539,-0.00000186,-0.00000326,0.0000
 2104,0.00001207,0.00000848,-0.00000521,0.00001401,-0.00000753,-0.00000
 158,-0.00000291,-0.00000090,-0.00000052,0.00000055,0.00000383,-0.00007
 171,0.00006513,-0.00001643,0.00001069,-0.00000745,-0.00002488,-0.00000
 135,-0.00000192,-0.00000092,0.00000350,0.00000315,-0.00000598,-0.00000
 073,-0.00000130,0.00000476,0.00000495,-0.00000440,-0.00000707,0.000001
 30,0.00000332,-0.00000040,0.00000055,0.00000264,-0.00000151,-0.0000022
 1,0.00000163,0.00000174,-0.00000571,-0.00000137,-0.00000223,0.00000049
 ,-0.00000106,0.00000093,-0.00000747,0.00000031,-0.00000194,0.00000195,
 -0.00000365,0.00000132,-0.00000028,-0.00000129,0.00000170,-0.00000100,
 -0.00000231,0.00000175,0.00001494,0.00002272,0.00009782,-0.00001743,-0
 .00002882,0.00001019,-0.00002310,-0.00000613,-0.00000888,-0.00045813,-
 0.00023988,0.00007815,0.00003024,-0.00005748,0.00007022,-0.00028793,0.
 00031158,-0.00021585,-0.00001359,-0.00003333,-0.00003140,-0.00081634,0
 .00173798,-0.00279573,-0.00000897,0.00004719,0.00000942,0.00000283,-0.
 00001282,0.00000830,0.00002581,0.00000252,-0.00001881,0.00000051,-0.00
 000304,0.00000092,-0.00000532,-0.00000892,0.00000755,-0.00001072,-0.00
 000604,-0.00000665,0.02594306,-0.00886335,-0.00121346,0.07945895,-0.07
 681295,-0.00246071,-0.02459804,0.01065042,0.00127972,0.01110586,-0.004
 66239,0.00070163,-0.09055435,0.07966885,0.00000404,0.00000644,-0.00001
 065,-0.00008526,0.00001361,0.00003057,-0.00002911,0.00002096,0.0000076
 4,0.00001661,-0.00003827,-0.00002449,0.00003939,-0.00002472,-0.0000146
 0,0.00000862,0.00000855,-0.00002599,-0.00001715,-0.00001162,0.00000598
 ,-0.00000627,-0.00002846,-0.00007364,0.00000437,-0.00000252,0.00000295
 ,0.00000497,0.00000039,0.00000245,0.00000768,-0.00000116,0.00000022,0.
 00000369,-0.00001116,0.00000410,0.00000843,-0.00000294,0.00000438,-0.0
 0000350,-0.00000022,-0.00001897,-0.00000954,-0.00002270,-0.00001025,0.
 00000851,0.00000567,0.00001589,0.00000090,-0.00000763,0.00000390,-0.00
 000431,-0.00000272,0.00000091,0.00001323,0.00001188,0.00000227,-0.0000
 0345,0.00000269,-0.00000012,-0.00000751,-0.00000423,0.00000625,-0.0000
 0460,-0.00000022,-0.00000109,0.00000228,0.00000024,0.00000190,0.000006
 69,0.00000194,0.00000089,0.00000289,0.00000062,-0.00000822,0.00000134,
 -0.00000236,-0.00000379,0.00000045,-0.00000345,-0.00000117,-0.00000073
 ,0.00000059,0.00000045,-0.00000140,-0.00000236,-0.00000040,-0.00002675
 ,0.00009577,-0.00007033,0.00001665,0.00001957,-0.00000595,0.00000312,-
 0.00002649,0.00003487,0.00021612,0.00015604,-0.00033441,0.00003834,-0.
 00001949,-0.00000499,0.00037950,-0.00025305,0.00011020,0.00005534,-0.0
 0005711,0.00019318,-0.00004056,-0.00226836,0.00180034,0.00004906,-0.00
 006286,-0.00007042,-0.00004603,-0.00001165,0.00000995,0.00003353,0.000
 02405,0.00000033,-0.00000247,-0.00000334,-0.00000426,-0.00000692,0.000
 00433,0.00001896,-0.00001066,-0.00002804,-0.00001405,-0.02655294,0.007
 85518,0.00086345,0.00838934,-0.00359926,-0.05024203,-0.00524282,0.0021
 9208,-0.00105194,0.02872314,-0.00830176,0.00159732,-0.00610872,0.00041
 090,0.04961385,-0.00004648,0.00008074,-0.00001597,-0.00010394,0.000226
 83,-0.00005242,-0.00030989,-0.00018005,0.00003811,0.00010318,-0.000285
 20,-0.00024864,0.00011157,0.00002685,-0.00017046,0.00013141,-0.0000215
 1,-0.00005245,-0.00000981,-0.00004641,0.00000094,-0.00002463,-0.000107
 83,-0.00006152,-0.00000622,0.00001210,0.00004415,0.00000844,0.00000133
 ,0.00000346,-0.00000105,-0.00000382,0.00000442,-0.00008157,-0.00008698
 ,0.00007120,0.00004782,0.00001968,0.00001915,0.00003840,0.00003391,-0.
 00004560,0.00029011,0.00004971,-0.00020453,0.00004187,0.00007758,0.000
 14904,-0.00000169,-0.00001686,-0.00000365,-0.00002781,-0.00003835,0.00
 004315,0.00005028,0.00005309,0.00000256,-0.00003832,-0.00001900,0.0000
 1759,-0.00000056,-0.00001975,0.00000701,0.00000493,0.00000944,0.000013
 47,-0.00000294,0.00001511,0.00001656,0.00001889,-0.00000512,-0.0000017
 5,0.00000816,0.00000483,-0.00002369,-0.00000481,-0.00000548,-0.0000032
 2,-0.00000540,-0.00001343,-0.00000678,-0.00000229,0.00000178,-0.000002
 53,-0.00000394,-0.00000225,-0.00000363,0.00004827,0.00002448,-0.000580
 62,0.00029644,0.00015774,-0.00007540,0.00009041,0.00001199,0.00012832,
 0.00219012,0.00129855,-0.00630912,0.00005839,-0.00026913,0.00019367,0.
 00121826,-0.00218274,0.00185962,0.00006354,0.00017499,0.00039311,-0.03
 579771,0.01018667,0.01452844,0.00004057,-0.00020422,-0.00004019,-0.000
 09777,0.00001646,0.00001914,-0.00001037,0.00002055,0.00003855,0.000003
 78,0.00001608,-0.00001345,-0.00000324,0.00002735,0.00001911,-0.0000060
 6,-0.00001030,-0.00002105,-0.24427148,0.08537397,-0.01832160,-0.001595
 90,0.00145165,0.00177116,-0.00003618,0.00109851,-0.00067313,-0.0000665
 3,0.00011833,-0.00053889,0.00079991,0.00029768,0.00017249,0.27689180,0
 .00008693,-0.00017931,0.00003460,0.00005877,-0.00010827,-0.00001345,0.
 00032098,0.00010476,-0.00009293,-0.00000805,0.00028223,0.00006355,-0.0
 0020377,0.00012185,0.00011480,-0.00007230,-0.00016851,0.00014966,0.000
 00141,0.00006020,0.00000228,-0.00000628,-0.00000855,0.00000425,0.00001
 967,-0.00003294,0.00001746,-0.00000721,-0.00000830,-0.00002702,0.00000
 280,-0.00000804,-0.00002051,-0.00000026,0.00005959,-0.00003022,0.00000
 195,-0.00001295,0.00002641,-0.00004092,-0.00003560,0.00001427,0.000029
 86,0.00071516,0.00011991,0.00006477,-0.00008951,-0.00019020,0.00000950
 ,-0.00004097,0.00004544,0.00004460,0.00005011,-0.00006261,-0.00000100,
 -0.00001634,0.00000021,-0.00001036,-0.00001357,-0.00000113,0.00000984,
 0.00001290,0.,0.00000486,-0.00000062,-0.00000172,-0.00000701,-0.000002
 87,0.00000543,-0.00000443,-0.00000792,-0.00000213,0.00000127,0.0000011
 2,-0.00000454,-0.00000869,0.00000455,-0.00000073,0.00000180,-0.0000060
 6,0.00000163,0.00000001,-0.00000138,0.00000224,-0.00000151,-0.00000251
 ,0.00000049,0.00012197,0.00009322,0.00000058,0.00004195,-0.00001825,0.
 00003050,0.00001208,0.00001342,0.00002821,-0.00713797,-0.00237558,-0.0
 0573329,-0.00036268,-0.00074937,0.00070852,0.00062822,0.00040767,-0.00
 140211,-0.00011542,0.00012141,0.00013355,-0.00145300,0.01873620,0.0117
 3213,-0.00000103,-0.00017402,0.00002917,-0.00004502,0.00002957,0.00003
 994,-0.00001297,0.00000693,0.00000263,-0.00001459,0.00001065,0.0000066
 0,0.00000595,0.00000575,-0.00000971,0.00001980,-0.00000305,0.00001264,
 0.08469083,-0.09534611,0.01324773,0.02056553,-0.00321645,0.00243613,-0
 .00063901,0.00079544,-0.00115217,-0.00007102,0.00004966,0.00095704,0.0
 0084865,-0.00179649,0.00396670,-0.09736954,0.08274113,-0.00000230,0.00
 002982,0.00000215,-0.00002604,0.00004547,-0.00011006,0.00019557,-0.000
 18434,-0.00024397,0.00005224,0.00011382,-0.00007902,-0.00017155,-0.000
 09459,0.00006566,-0.00001242,-0.00007184,0.00000600,-0.00001465,-0.000
 01465,-0.00000215,0.00001018,-0.00000468,-0.00003790,0.00000276,-0.000
 02085,-0.00000079,0.00000974,-0.00000966,0.00000241,0.00001371,0.00002
 532,0.00000251,0.00001946,0.00006449,-0.00003892,-0.00000293,-0.000011
 62,-0.00000693,-0.00002422,-0.00001312,0.00000254,-0.00014723,0.000750
 62,-0.00006034,0.00010456,-0.00009585,-0.00017998,-0.00001730,0.000007
 11,0.00000261,0.00001861,0.00005364,-0.00004517,-0.00000697,-0.0000079
 3,0.00000503,0.00000229,-0.00001672,-0.00001399,0.00001080,0.00000875,
 -0.00000415,0.00000051,0.00000197,0.00000068,-0.00000478,0.00000722,0.
 00001165,-0.00000989,-0.00000735,0.00000209,-0.00000314,-0.00000060,0.
 00000052,-0.00000788,0.00000167,-0.00000047,-0.00000066,-0.00000600,0.
 00000179,0.00000267,-0.00000072,-0.00000082,-0.00000005,0.00000127,0.0
 0000098,0.00030153,0.00027859,0.00003837,-0.00016851,-0.00008007,-0.00
 006643,-0.00003937,-0.00008852,-0.00011826,0.00273524,-0.00844250,-0.0
 0188001,-0.00045053,-0.00052936,0.00062725,-0.00191649,0.00016751,0.00
 002500,-0.00010547,0.00012732,0.00014553,0.03147881,0.00587089,0.00907
 075,-0.00000833,-0.00004227,0.00001552,-0.00003423,-0.00000463,0.00003
 188,0.00002218,0.00000452,-0.00000989,-0.00000047,-0.00000706,-0.00000
 011,-0.00000232,-0.00000621,0.00000622,-0.00000567,-0.00001415,-0.0000
 0117,-0.02104089,0.01423582,-0.05953781,-0.01932827,0.01005352,0.00305
 378,0.00042063,0.00048121,0.00013752,0.00055970,-0.00154460,0.00092600
 ,-0.00032453,0.00417958,-0.00234142,0.00791588,-0.02519024,0.05059531\
 \0.00001236,0.00000020,-0.00000651,-0.00000206,-0.00001145,0.00000761,
 -0.00001240,0.00001997,-0.00000775,0.00001144,-0.00000539,-0.00000373,
 -0.00000160,-0.00000734,0.00000573,-0.00000654,0.00000683,-0.00000253,
 -0.00000137,-0.00000023,0.00000062,-0.00000076,0.00000021,-0.00000195,
 -0.00000114,-0.00000016,0.00000015,-0.00000055,-0.00000033,-0.00000108
 ,-0.00000033,-0.00000005,0.00000061,-0.00001040,-0.00001457,-0.0000101
 7,0.00000181,0.00000359,0.00000014,0.00000030,0.00000293,0.00000511,0.
 00001954,0.00001003,0.00000365,-0.00000638,-0.00000856,0.00001084,-0.0
 0000042,0.00000103,-0.00000240,0.00000084,0.00000258,-0.00000336,0.000
 00402,-0.00000086,-0.00000184,0.00000144,0.00000403,0.00000257,-0.0000
 0333,0.00000132,0.00000043,-0.00000226,-0.00000082,0.00000097,0.000000
 08,-0.00000065,0.00000017,-0.00000047,0.00000104,0.00000133,0.00000043
 ,-0.00000036,-0.00000004,0.00000060,-0.00000068,0.00000015,0.00000007,
 -0.00000012,0.00000062,0.00000043,0.00000044,0.00000036,0.00000062,0.,
 -0.00000022,-0.00001839,0.00000452,0.00000130,0.00000492,-0.00000099,-
 0.00000021,0.00000321,-0.00000026,-0.00000186,0.00000562,-0.00001035,0
 .00000888,0.00000083,-0.00000189,-0.00000378,-0.00000379,0.00000246,-0
 .00000332,0.00000193,-0.00000927,0.00000068,-0.00000062,0.00000637,-0.
 00000822,-0.00000313,0.00000768,0.00000179,0.00000166,0.00000063,-0.00
 000184,0.00000630,-0.00000033,0.00000864,-0.00000338,0.00000035,-0.000
 00346,-0.00000093,-0.00000161,-0.00000501,-0.00000197,0.00000147,-0.00
 000165,0.00000919,-0.00000040,0.00000532,-0.00000081,0.00000753,0.0000
 0388,-0.00000076,-0.00000423,-0.00000130,-0.00000080,-0.00000170,-0.00
 000162,0.00000012,-0.00000287,-0.00000037,-0.00000317,0.00000028,0.000
 00269\\\@
 The archive entry for this job was punched.


 IT MATTERS NOT HOW DEEP YOU PLOW,
 BUT HOW LONG YOU STAY IN THE FURROW.
 Job cpu time:       0 days 10 hours 24 minutes  7.8 seconds.
 Elapsed time:       0 days  0 hours 39 minutes  4.6 seconds.
 File lengths (MBytes):  RWF=   1728 Int=      0 D2E=      0 Chk=     33 Scr=      1
 Normal termination of Gaussian 16 at Sat Oct  2 11:17:28 2021.
