 Entering Gaussian System, Link 0=/home/rong/g16/g16
 Input=/home/rong/g16/102121/CH2NCH2PhCH2CH3.gjf
 Output=/home/rong/g16/102121/CH2NCH2PhCH2CH3.log
 Initial command:
 /home/rong/g16/l1.exe "/tmp/Gau-103088.inp" -scrdir="/tmp/"
 Default is to use a total of   8 processors:
                                8 via shared-memory
                                1 via Linda
 Entering Link 1 = /home/rong/g16/l1.exe PID=    103090.
  
 Copyright (c) 1988-2019, Gaussian, Inc.  All Rights Reserved.
  
 This is part of the Gaussian(R) 16 program.  It is based on
 the Gaussian(R) 09 system (copyright 2009, Gaussian, Inc.),
 the Gaussian(R) 03 system (copyright 2003, Gaussian, Inc.),
 the Gaussian(R) 98 system (copyright 1998, Gaussian, Inc.),
 the Gaussian(R) 94 system (copyright 1995, Gaussian, Inc.),
 the Gaussian 92(TM) system (copyright 1992, Gaussian, Inc.),
 the Gaussian 90(TM) system (copyright 1990, Gaussian, Inc.),
 the Gaussian 88(TM) system (copyright 1988, Gaussian, Inc.),
 the Gaussian 86(TM) system (copyright 1986, Carnegie Mellon
 University), and the Gaussian 82(TM) system (copyright 1983,
 Carnegie Mellon University). Gaussian is a federally registered
 trademark of Gaussian, Inc.
  
 This software contains proprietary and confidential information,
 including trade secrets, belonging to Gaussian, Inc.
  
 This software is provided under written license and may be
 used, copied, transmitted, or stored only in accord with that
 written license.
  
 The following legend is applicable only to US Government
 contracts under FAR:
  
                    RESTRICTED RIGHTS LEGEND
  
 Use, reproduction and disclosure by the US Government is
 subject to restrictions as set forth in subparagraphs (a)
 and (c) of the Commercial Computer Software - Restricted
 Rights clause in FAR 52.227-19.
  
 Gaussian, Inc.
 340 Quinnipiac St., Bldg. 40, Wallingford CT 06492
  
  
 ---------------------------------------------------------------
 Warning -- This program may not be used in any manner that
 competes with the business of Gaussian, Inc. or will provide
 assistance to any competitor of Gaussian, Inc.  The licensee
 of this program is prohibited from giving any competitor of
 Gaussian, Inc. access to this program.  By using this program,
 the user acknowledges that Gaussian, Inc. is engaged in the
 business of creating and licensing software in the field of
 computational chemistry and represents and warrants to the
 licensee that it is not a competitor of Gaussian, Inc. and that
 it will not use this program in any manner prohibited above.
 ---------------------------------------------------------------
  

 Cite this work as:
 Gaussian 16, Revision C.01,
 M. J. Frisch, G. W. Trucks, H. B. Schlegel, G. E. Scuseria, 
 M. A. Robb, J. R. Cheeseman, G. Scalmani, V. Barone, 
 G. A. Petersson, H. Nakatsuji, X. Li, M. Caricato, A. V. Marenich, 
 J. Bloino, B. G. Janesko, R. Gomperts, B. Mennucci, H. P. Hratchian, 
 J. V. Ortiz, A. F. Izmaylov, J. L. Sonnenberg, D. Williams-Young, 
 F. Ding, F. Lipparini, F. Egidi, J. Goings, B. Peng, A. Petrone, 
 T. Henderson, D. Ranasinghe, V. G. Zakrzewski, J. Gao, N. Rega, 
 G. Zheng, W. Liang, M. Hada, M. Ehara, K. Toyota, R. Fukuda, 
 J. Hasegawa, M. Ishida, T. Nakajima, Y. Honda, O. Kitao, H. Nakai, 
 T. Vreven, K. Throssell, J. A. Montgomery, Jr., J. E. Peralta, 
 F. Ogliaro, M. J. Bearpark, J. J. Heyd, E. N. Brothers, K. N. Kudin, 
 V. N. Staroverov, T. A. Keith, R. Kobayashi, J. Normand, 
 K. Raghavachari, A. P. Rendell, J. C. Burant, S. S. Iyengar, 
 J. Tomasi, M. Cossi, J. M. Millam, M. Klene, C. Adamo, R. Cammi, 
 J. W. Ochterski, R. L. Martin, K. Morokuma, O. Farkas, 
 J. B. Foresman, and D. J. Fox, Gaussian, Inc., Wallingford CT, 2019.
 
 ******************************************
 Gaussian 16:  ES64L-G16RevC.01  3-Jul-2019
                24-Oct-2021 
 ******************************************
 %mem=15GB
 %chk=CH2NCH2PhCH2CH3.chk
 %nprocshared=8
 Will use up to    8 processors via shared memory.
 ----------------------------------------------------
 # opt freq b3lyp/6-31g(d) scrf=(smd,solvent=toluene)
 ----------------------------------------------------
 1/18=20,19=15,26=3,38=1/1,3;
 2/9=110,12=2,17=6,18=5,40=1/2;
 3/5=1,6=6,7=1,11=2,25=1,30=1,70=32201,71=1,72=13,74=-5/1,2,3;
 4//1;
 5/5=2,38=5,53=13/2;
 6/7=2,8=2,9=2,10=2,28=1/1;
 7//1,2,3,16;
 1/18=20,19=15,26=3/3(2);
 2/9=110/2;
 99//99;
 2/9=110/2;
 3/5=1,6=6,7=1,11=2,25=1,30=1,70=32205,71=1,72=13,74=-5/1,2,3;
 4/5=5,16=3,69=1/1;
 5/5=2,38=5,53=13/2;
 7//1,2,3,16;
 1/18=20,19=15,26=3/3(-5);
 2/9=110/2;
 6/7=2,8=2,9=2,10=2,19=2,28=1/1;
 99/9=1/99;
 ---------------
 CH2NCH2PhCH2CH3
 ---------------
 Symbolic Z-matrix:
 Charge =  0 Multiplicity = 1
 C                    -2.35294   1.54412   0. 
 H                    -1.99627   2.04852  -0.87365 
 H                    -3.42294   1.54413   0. 
 C                    -1.8396    2.27007   1.2574 
 H                    -2.19609   3.27894   1.25731 
 H                    -2.19643   1.76579   2.13106 
 N                    -1.86296   0.15818   0. 
 N                    -0.3696    2.26982   1.25754 
 C                    -1.51535  -0.23865  -1.37208 
 H                    -1.24477  -1.27377  -1.38627 
 H                    -2.35754  -0.08132  -2.01306 
 C                    -2.91207  -0.73244   0.51677 
 H                    -3.80243  -0.60915  -0.06372 
 H                    -2.58167  -1.74807   0.45172 
 C                    -0.3285    0.60901  -1.86652 
 H                     0.427     0.64076  -1.10948 
 H                     0.07575   0.17227  -2.75576 
 H                    -0.66364   1.60295  -2.07788 
 C                     0.12066   3.59678   0.85787 
 H                     1.16411   3.53731   0.62856 
 H                    -0.41589   3.92999  -0.00583 
 C                    -0.09527   4.59293   2.01228 
 H                     0.64168   5.3668    1.95814 
 H                    -1.07147   5.0239    1.93359 
 H                    -0.00605   4.08022   2.94719 
 C                     0.12022   1.95238   2.60669 
 H                     1.10611   2.34929   2.73076 
 H                     0.14423   0.89059   2.73676 
 C                    -3.20522  -0.38118   1.98724 
 C                    -4.28416   0.44409   2.30551 
 C                    -2.3922   -0.88813   3.00091 
 C                    -4.54954   0.76282   3.63712 
 H                    -4.92449   0.84422   1.50606 
 C                    -2.65811  -0.57019   4.33306 
 H                    -1.54189  -1.53873   2.75026 
 C                    -3.73649   0.25525   4.65129 
 H                    -5.39958   1.41381   3.88802 
 H                    -2.01715  -0.97038   5.13211 
 H                    -3.94596   0.50665   5.70115 
 C                    -0.82012   2.57676   3.65431 
 C                    -0.69537   2.22811   4.99943 
 C                    -1.79644   3.4909    3.25848 
 C                    -1.54724   2.793     5.94834 
 H                     0.07394   1.5068    5.31107 
 C                    -2.648     4.05681   4.20769 
 H                    -1.89478   3.76594   2.19838 
 C                    -2.52365   3.70793   5.55244 
 H                    -1.44938   2.51776   7.00852 
 H                    -3.41743   4.77785   3.89535 
 H                    -3.19517   4.15324   6.30081 
 

 GradGradGradGradGradGradGradGradGradGradGradGradGradGradGradGradGradGrad
 Berny optimization.
 Initialization pass.
                           ----------------------------
                           !    Initial Parameters    !
                           ! (Angstroms and Degrees)  !
 --------------------------                            --------------------------
 ! Name  Definition              Value          Derivative Info.                !
 --------------------------------------------------------------------------------
 ! R1    R(1,2)                  1.07           estimate D2E/DX2                !
 ! R2    R(1,3)                  1.07           estimate D2E/DX2                !
 ! R3    R(1,4)                  1.54           estimate D2E/DX2                !
 ! R4    R(1,7)                  1.47           estimate D2E/DX2                !
 ! R5    R(4,5)                  1.07           estimate D2E/DX2                !
 ! R6    R(4,6)                  1.07           estimate D2E/DX2                !
 ! R7    R(4,8)                  1.47           estimate D2E/DX2                !
 ! R8    R(7,9)                  1.47           estimate D2E/DX2                !
 ! R9    R(7,12)                 1.47           estimate D2E/DX2                !
 ! R10   R(8,19)                 1.47           estimate D2E/DX2                !
 ! R11   R(8,26)                 1.47           estimate D2E/DX2                !
 ! R12   R(9,10)                 1.07           estimate D2E/DX2                !
 ! R13   R(9,11)                 1.07           estimate D2E/DX2                !
 ! R14   R(9,15)                 1.54           estimate D2E/DX2                !
 ! R15   R(12,13)                1.07           estimate D2E/DX2                !
 ! R16   R(12,14)                1.07           estimate D2E/DX2                !
 ! R17   R(12,29)                1.54           estimate D2E/DX2                !
 ! R18   R(15,16)                1.07           estimate D2E/DX2                !
 ! R19   R(15,17)                1.07           estimate D2E/DX2                !
 ! R20   R(15,18)                1.07           estimate D2E/DX2                !
 ! R21   R(19,20)                1.07           estimate D2E/DX2                !
 ! R22   R(19,21)                1.07           estimate D2E/DX2                !
 ! R23   R(19,22)                1.54           estimate D2E/DX2                !
 ! R24   R(22,23)                1.07           estimate D2E/DX2                !
 ! R25   R(22,24)                1.07           estimate D2E/DX2                !
 ! R26   R(22,25)                1.07           estimate D2E/DX2                !
 ! R27   R(26,27)                1.07           estimate D2E/DX2                !
 ! R28   R(26,28)                1.07           estimate D2E/DX2                !
 ! R29   R(26,40)                1.54           estimate D2E/DX2                !
 ! R30   R(29,30)                1.3952         estimate D2E/DX2                !
 ! R31   R(29,31)                1.3948         estimate D2E/DX2                !
 ! R32   R(30,32)                1.3947         estimate D2E/DX2                !
 ! R33   R(30,33)                1.0997         estimate D2E/DX2                !
 ! R34   R(31,34)                1.3951         estimate D2E/DX2                !
 ! R35   R(31,35)                1.0996         estimate D2E/DX2                !
 ! R36   R(32,36)                1.3954         estimate D2E/DX2                !
 ! R37   R(32,37)                1.0997         estimate D2E/DX2                !
 ! R38   R(34,36)                1.3948         estimate D2E/DX2                !
 ! R39   R(34,38)                1.0998         estimate D2E/DX2                !
 ! R40   R(36,39)                1.0997         estimate D2E/DX2                !
 ! R41   R(40,41)                1.3952         estimate D2E/DX2                !
 ! R42   R(40,42)                1.3948         estimate D2E/DX2                !
 ! R43   R(41,43)                1.3947         estimate D2E/DX2                !
 ! R44   R(41,44)                1.0997         estimate D2E/DX2                !
 ! R45   R(42,45)                1.3951         estimate D2E/DX2                !
 ! R46   R(42,46)                1.0996         estimate D2E/DX2                !
 ! R47   R(43,47)                1.3954         estimate D2E/DX2                !
 ! R48   R(43,48)                1.0997         estimate D2E/DX2                !
 ! R49   R(45,47)                1.3948         estimate D2E/DX2                !
 ! R50   R(45,49)                1.0998         estimate D2E/DX2                !
 ! R51   R(47,50)                1.0997         estimate D2E/DX2                !
 ! A1    A(2,1,3)              109.4712         estimate D2E/DX2                !
 ! A2    A(2,1,4)              109.4713         estimate D2E/DX2                !
 ! A3    A(2,1,7)              109.4712         estimate D2E/DX2                !
 ! A4    A(3,1,4)              109.4712         estimate D2E/DX2                !
 ! A5    A(3,1,7)              109.4712         estimate D2E/DX2                !
 ! A6    A(4,1,7)              109.4712         estimate D2E/DX2                !
 ! A7    A(1,4,5)              109.4712         estimate D2E/DX2                !
 ! A8    A(1,4,6)              109.4712         estimate D2E/DX2                !
 ! A9    A(1,4,8)              109.4712         estimate D2E/DX2                !
 ! A10   A(5,4,6)              109.4712         estimate D2E/DX2                !
 ! A11   A(5,4,8)              109.4713         estimate D2E/DX2                !
 ! A12   A(6,4,8)              109.4712         estimate D2E/DX2                !
 ! A13   A(1,7,9)              109.4712         estimate D2E/DX2                !
 ! A14   A(1,7,12)             109.4712         estimate D2E/DX2                !
 ! A15   A(9,7,12)             109.4713         estimate D2E/DX2                !
 ! A16   A(4,8,19)             109.4712         estimate D2E/DX2                !
 ! A17   A(4,8,26)             109.4712         estimate D2E/DX2                !
 ! A18   A(19,8,26)            109.4713         estimate D2E/DX2                !
 ! A19   A(7,9,10)             109.4712         estimate D2E/DX2                !
 ! A20   A(7,9,11)             109.4712         estimate D2E/DX2                !
 ! A21   A(7,9,15)             109.4712         estimate D2E/DX2                !
 ! A22   A(10,9,11)            109.4713         estimate D2E/DX2                !
 ! A23   A(10,9,15)            109.4712         estimate D2E/DX2                !
 ! A24   A(11,9,15)            109.4712         estimate D2E/DX2                !
 ! A25   A(7,12,13)            109.4712         estimate D2E/DX2                !
 ! A26   A(7,12,14)            109.4712         estimate D2E/DX2                !
 ! A27   A(7,12,29)            109.4712         estimate D2E/DX2                !
 ! A28   A(13,12,14)           109.4713         estimate D2E/DX2                !
 ! A29   A(13,12,29)           109.4712         estimate D2E/DX2                !
 ! A30   A(14,12,29)           109.4712         estimate D2E/DX2                !
 ! A31   A(9,15,16)            109.4712         estimate D2E/DX2                !
 ! A32   A(9,15,17)            109.4712         estimate D2E/DX2                !
 ! A33   A(9,15,18)            109.4712         estimate D2E/DX2                !
 ! A34   A(16,15,17)           109.4713         estimate D2E/DX2                !
 ! A35   A(16,15,18)           109.4712         estimate D2E/DX2                !
 ! A36   A(17,15,18)           109.4712         estimate D2E/DX2                !
 ! A37   A(8,19,20)            109.4712         estimate D2E/DX2                !
 ! A38   A(8,19,21)            109.4712         estimate D2E/DX2                !
 ! A39   A(8,19,22)            109.4712         estimate D2E/DX2                !
 ! A40   A(20,19,21)           109.4712         estimate D2E/DX2                !
 ! A41   A(20,19,22)           109.4713         estimate D2E/DX2                !
 ! A42   A(21,19,22)           109.4712         estimate D2E/DX2                !
 ! A43   A(19,22,23)           109.4712         estimate D2E/DX2                !
 ! A44   A(19,22,24)           109.4712         estimate D2E/DX2                !
 ! A45   A(19,22,25)           109.4712         estimate D2E/DX2                !
 ! A46   A(23,22,24)           109.4713         estimate D2E/DX2                !
 ! A47   A(23,22,25)           109.4712         estimate D2E/DX2                !
 ! A48   A(24,22,25)           109.4712         estimate D2E/DX2                !
 ! A49   A(8,26,27)            109.4712         estimate D2E/DX2                !
 ! A50   A(8,26,28)            109.4712         estimate D2E/DX2                !
 ! A51   A(8,26,40)            109.4712         estimate D2E/DX2                !
 ! A52   A(27,26,28)           109.4712         estimate D2E/DX2                !
 ! A53   A(27,26,40)           109.4713         estimate D2E/DX2                !
 ! A54   A(28,26,40)           109.4712         estimate D2E/DX2                !
 ! A55   A(12,29,30)           119.9972         estimate D2E/DX2                !
 ! A56   A(12,29,31)           120.0043         estimate D2E/DX2                !
 ! A57   A(30,29,31)           119.9985         estimate D2E/DX2                !
 ! A58   A(29,30,32)           120.0086         estimate D2E/DX2                !
 ! A59   A(29,30,33)           119.9808         estimate D2E/DX2                !
 ! A60   A(32,30,33)           120.0105         estimate D2E/DX2                !
 ! A61   A(29,31,34)           120.0            estimate D2E/DX2                !
 ! A62   A(29,31,35)           120.008          estimate D2E/DX2                !
 ! A63   A(34,31,35)           119.992          estimate D2E/DX2                !
 ! A64   A(30,32,36)           119.9942         estimate D2E/DX2                !
 ! A65   A(30,32,37)           120.0128         estimate D2E/DX2                !
 ! A66   A(36,32,37)           119.993          estimate D2E/DX2                !
 ! A67   A(31,34,36)           120.0047         estimate D2E/DX2                !
 ! A68   A(31,34,38)           119.984          estimate D2E/DX2                !
 ! A69   A(36,34,38)           120.0113         estimate D2E/DX2                !
 ! A70   A(32,36,34)           119.994          estimate D2E/DX2                !
 ! A71   A(32,36,39)           119.9811         estimate D2E/DX2                !
 ! A72   A(34,36,39)           120.0249         estimate D2E/DX2                !
 ! A73   A(26,40,41)           119.9972         estimate D2E/DX2                !
 ! A74   A(26,40,42)           120.0043         estimate D2E/DX2                !
 ! A75   A(41,40,42)           119.9985         estimate D2E/DX2                !
 ! A76   A(40,41,43)           120.0086         estimate D2E/DX2                !
 ! A77   A(40,41,44)           119.9808         estimate D2E/DX2                !
 ! A78   A(43,41,44)           120.0105         estimate D2E/DX2                !
 ! A79   A(40,42,45)           120.0            estimate D2E/DX2                !
 ! A80   A(40,42,46)           120.008          estimate D2E/DX2                !
 ! A81   A(45,42,46)           119.992          estimate D2E/DX2                !
 ! A82   A(41,43,47)           119.9942         estimate D2E/DX2                !
 ! A83   A(41,43,48)           120.0128         estimate D2E/DX2                !
 ! A84   A(47,43,48)           119.993          estimate D2E/DX2                !
 ! A85   A(42,45,47)           120.0047         estimate D2E/DX2                !
 ! A86   A(42,45,49)           119.984          estimate D2E/DX2                !
 ! A87   A(47,45,49)           120.0113         estimate D2E/DX2                !
 ! A88   A(43,47,45)           119.994          estimate D2E/DX2                !
 ! A89   A(43,47,50)           119.9811         estimate D2E/DX2                !
 ! A90   A(45,47,50)           120.0249         estimate D2E/DX2                !
 ! D1    D(2,1,4,5)             59.9889         estimate D2E/DX2                !
 ! D2    D(2,1,4,6)            179.9889         estimate D2E/DX2                !
 ! D3    D(2,1,4,8)            -60.0111         estimate D2E/DX2                !
 ! D4    D(3,1,4,5)            -60.0111         estimate D2E/DX2                !
 ! D5    D(3,1,4,6)             59.9889         estimate D2E/DX2                !
 ! D6    D(3,1,4,8)            179.9889         estimate D2E/DX2                !
 ! D7    D(7,1,4,5)            179.9889         estimate D2E/DX2                !
 ! D8    D(7,1,4,6)            -60.0111         estimate D2E/DX2                !
 ! D9    D(7,1,4,8)             59.9889         estimate D2E/DX2                !
 ! D10   D(2,1,7,9)            -21.8926         estimate D2E/DX2                !
 ! D11   D(2,1,7,12)          -141.8926         estimate D2E/DX2                !
 ! D12   D(3,1,7,9)             98.1074         estimate D2E/DX2                !
 ! D13   D(3,1,7,12)           -21.8926         estimate D2E/DX2                !
 ! D14   D(4,1,7,9)           -141.8926         estimate D2E/DX2                !
 ! D15   D(4,1,7,12)            98.1073         estimate D2E/DX2                !
 ! D16   D(1,4,8,19)           103.241          estimate D2E/DX2                !
 ! D17   D(1,4,8,26)          -136.759          estimate D2E/DX2                !
 ! D18   D(5,4,8,19)           -16.759          estimate D2E/DX2                !
 ! D19   D(5,4,8,26)           103.241          estimate D2E/DX2                !
 ! D20   D(6,4,8,19)          -136.759          estimate D2E/DX2                !
 ! D21   D(6,4,8,26)           -16.759          estimate D2E/DX2                !
 ! D22   D(1,7,9,10)          -174.8232         estimate D2E/DX2                !
 ! D23   D(1,7,9,11)           -54.8232         estimate D2E/DX2                !
 ! D24   D(1,7,9,15)            65.1768         estimate D2E/DX2                !
 ! D25   D(12,7,9,10)          -54.8233         estimate D2E/DX2                !
 ! D26   D(12,7,9,11)           65.1768         estimate D2E/DX2                !
 ! D27   D(12,7,9,15)         -174.8232         estimate D2E/DX2                !
 ! D28   D(1,7,12,13)           55.9962         estimate D2E/DX2                !
 ! D29   D(1,7,12,14)          175.9963         estimate D2E/DX2                !
 ! D30   D(1,7,12,29)          -64.0037         estimate D2E/DX2                !
 ! D31   D(9,7,12,13)          -64.0037         estimate D2E/DX2                !
 ! D32   D(9,7,12,14)           55.9963         estimate D2E/DX2                !
 ! D33   D(9,7,12,29)          175.9963         estimate D2E/DX2                !
 ! D34   D(4,8,19,20)         -166.4269         estimate D2E/DX2                !
 ! D35   D(4,8,19,21)          -46.4269         estimate D2E/DX2                !
 ! D36   D(4,8,19,22)           73.5731         estimate D2E/DX2                !
 ! D37   D(26,8,19,20)          73.5731         estimate D2E/DX2                !
 ! D38   D(26,8,19,21)        -166.4269         estimate D2E/DX2                !
 ! D39   D(26,8,19,22)         -46.4269         estimate D2E/DX2                !
 ! D40   D(4,8,26,27)         -155.7137         estimate D2E/DX2                !
 ! D41   D(4,8,26,28)           84.2863         estimate D2E/DX2                !
 ! D42   D(4,8,26,40)          -35.7137         estimate D2E/DX2                !
 ! D43   D(19,8,26,27)         -35.7137         estimate D2E/DX2                !
 ! D44   D(19,8,26,28)        -155.7137         estimate D2E/DX2                !
 ! D45   D(19,8,26,40)          84.2863         estimate D2E/DX2                !
 ! D46   D(7,9,15,16)           46.4402         estimate D2E/DX2                !
 ! D47   D(7,9,15,17)          166.4403         estimate D2E/DX2                !
 ! D48   D(7,9,15,18)          -73.5598         estimate D2E/DX2                !
 ! D49   D(10,9,15,16)         -73.5597         estimate D2E/DX2                !
 ! D50   D(10,9,15,17)          46.4403         estimate D2E/DX2                !
 ! D51   D(10,9,15,18)         166.4403         estimate D2E/DX2                !
 ! D52   D(11,9,15,16)         166.4402         estimate D2E/DX2                !
 ! D53   D(11,9,15,17)         -73.5598         estimate D2E/DX2                !
 ! D54   D(11,9,15,18)          46.4402         estimate D2E/DX2                !
 ! D55   D(7,12,29,30)          97.5358         estimate D2E/DX2                !
 ! D56   D(7,12,29,31)         -82.4695         estimate D2E/DX2                !
 ! D57   D(13,12,29,30)        -22.4642         estimate D2E/DX2                !
 ! D58   D(13,12,29,31)        157.5305         estimate D2E/DX2                !
 ! D59   D(14,12,29,30)       -142.4642         estimate D2E/DX2                !
 ! D60   D(14,12,29,31)         37.5305         estimate D2E/DX2                !
 ! D61   D(8,19,22,23)         152.0508         estimate D2E/DX2                !
 ! D62   D(8,19,22,24)         -87.9492         estimate D2E/DX2                !
 ! D63   D(8,19,22,25)          32.0508         estimate D2E/DX2                !
 ! D64   D(20,19,22,23)         32.0508         estimate D2E/DX2                !
 ! D65   D(20,19,22,24)        152.0509         estimate D2E/DX2                !
 ! D66   D(20,19,22,25)        -87.9491         estimate D2E/DX2                !
 ! D67   D(21,19,22,23)        -87.9492         estimate D2E/DX2                !
 ! D68   D(21,19,22,24)         32.0508         estimate D2E/DX2                !
 ! D69   D(21,19,22,25)        152.0508         estimate D2E/DX2                !
 ! D70   D(8,26,40,41)         169.1706         estimate D2E/DX2                !
 ! D71   D(8,26,40,42)         -10.8346         estimate D2E/DX2                !
 ! D72   D(27,26,40,41)        -70.8294         estimate D2E/DX2                !
 ! D73   D(27,26,40,42)        109.1653         estimate D2E/DX2                !
 ! D74   D(28,26,40,41)         49.1706         estimate D2E/DX2                !
 ! D75   D(28,26,40,42)       -130.8346         estimate D2E/DX2                !
 ! D76   D(12,29,30,32)       -179.9729         estimate D2E/DX2                !
 ! D77   D(12,29,30,33)         -0.052          estimate D2E/DX2                !
 ! D78   D(31,29,30,32)          0.0323         estimate D2E/DX2                !
 ! D79   D(31,29,30,33)        179.9532         estimate D2E/DX2                !
 ! D80   D(12,29,31,34)       -179.9798         estimate D2E/DX2                !
 ! D81   D(12,29,31,35)         -0.0056         estimate D2E/DX2                !
 ! D82   D(30,29,31,34)          0.0149         estimate D2E/DX2                !
 ! D83   D(30,29,31,35)        179.9892         estimate D2E/DX2                !
 ! D84   D(29,30,32,36)         -0.0568         estimate D2E/DX2                !
 ! D85   D(29,30,32,37)        179.9619         estimate D2E/DX2                !
 ! D86   D(33,30,32,36)       -179.9777         estimate D2E/DX2                !
 ! D87   D(33,30,32,37)          0.041          estimate D2E/DX2                !
 ! D88   D(29,31,34,36)         -0.0376         estimate D2E/DX2                !
 ! D89   D(29,31,34,38)        179.975          estimate D2E/DX2                !
 ! D90   D(35,31,34,36)        179.9881         estimate D2E/DX2                !
 ! D91   D(35,31,34,38)          0.0007         estimate D2E/DX2                !
 ! D92   D(30,32,36,34)          0.0341         estimate D2E/DX2                !
 ! D93   D(30,32,36,39)       -179.9964         estimate D2E/DX2                !
 ! D94   D(37,32,36,34)       -179.9846         estimate D2E/DX2                !
 ! D95   D(37,32,36,39)         -0.0151         estimate D2E/DX2                !
 ! D96   D(31,34,36,32)          0.0131         estimate D2E/DX2                !
 ! D97   D(31,34,36,39)       -179.9563         estimate D2E/DX2                !
 ! D98   D(38,34,36,32)       -179.9995         estimate D2E/DX2                !
 ! D99   D(38,34,36,39)          0.0311         estimate D2E/DX2                !
 ! D100  D(26,40,41,43)       -179.9729         estimate D2E/DX2                !
 ! D101  D(26,40,41,44)         -0.052          estimate D2E/DX2                !
 ! D102  D(42,40,41,43)          0.0323         estimate D2E/DX2                !
 ! D103  D(42,40,41,44)        179.9532         estimate D2E/DX2                !
 ! D104  D(26,40,42,45)       -179.9798         estimate D2E/DX2                !
 ! D105  D(26,40,42,46)         -0.0056         estimate D2E/DX2                !
 ! D106  D(41,40,42,45)          0.0149         estimate D2E/DX2                !
 ! D107  D(41,40,42,46)        179.9892         estimate D2E/DX2                !
 ! D108  D(40,41,43,47)         -0.0568         estimate D2E/DX2                !
 ! D109  D(40,41,43,48)        179.9619         estimate D2E/DX2                !
 ! D110  D(44,41,43,47)       -179.9777         estimate D2E/DX2                !
 ! D111  D(44,41,43,48)          0.041          estimate D2E/DX2                !
 ! D112  D(40,42,45,47)         -0.0376         estimate D2E/DX2                !
 ! D113  D(40,42,45,49)        179.975          estimate D2E/DX2                !
 ! D114  D(46,42,45,47)        179.9881         estimate D2E/DX2                !
 ! D115  D(46,42,45,49)          0.0007         estimate D2E/DX2                !
 ! D116  D(41,43,47,45)          0.0341         estimate D2E/DX2                !
 ! D117  D(41,43,47,50)       -179.9964         estimate D2E/DX2                !
 ! D118  D(48,43,47,45)       -179.9846         estimate D2E/DX2                !
 ! D119  D(48,43,47,50)         -0.0151         estimate D2E/DX2                !
 ! D120  D(42,45,47,43)          0.0131         estimate D2E/DX2                !
 ! D121  D(42,45,47,50)       -179.9563         estimate D2E/DX2                !
 ! D122  D(49,45,47,43)       -179.9995         estimate D2E/DX2                !
 ! D123  D(49,45,47,50)          0.0311         estimate D2E/DX2                !
 --------------------------------------------------------------------------------
 Trust Radius=3.00D-01 FncErr=1.00D-07 GrdErr=1.00D-06 EigMax=2.50D+02 EigMin=1.00D-04
 Number of steps in this run=    274 maximum allowed number of steps=    300.
 GradGradGradGradGradGradGradGradGradGradGradGradGradGradGradGradGradGrad

                          Input orientation:                          
 ---------------------------------------------------------------------
 Center     Atomic      Atomic             Coordinates (Angstroms)
 Number     Number       Type             X           Y           Z
 ---------------------------------------------------------------------
      1          6           0       -2.352941    1.544118    0.000000
      2          1           0       -1.996268    2.048516   -0.873652
      3          1           0       -3.422941    1.544131    0.000000
      4          6           0       -1.839599    2.270074    1.257405
      5          1           0       -2.196094    3.278940    1.257307
      6          1           0       -2.196431    1.765788    2.131056
      7          7           0       -1.862958    0.158182    0.000000
      8          7           0       -0.369599    2.269823    1.257539
      9          6           0       -1.515352   -0.238646   -1.372078
     10          1           0       -1.244769   -1.273771   -1.386273
     11          1           0       -2.357545   -0.081323   -2.013062
     12          6           0       -2.912071   -0.732442    0.516770
     13          1           0       -3.802428   -0.609148   -0.063716
     14          1           0       -2.581670   -1.748071    0.451719
     15          6           0       -0.328505    0.609007   -1.866524
     16          1           0        0.426997    0.640761   -1.109484
     17          1           0        0.075754    0.172267   -2.755755
     18          1           0       -0.663637    1.602947   -2.077876
     19          6           0        0.120663    3.596777    0.857869
     20          1           0        1.164111    3.537310    0.628563
     21          1           0       -0.415894    3.929991   -0.005829
     22          6           0       -0.095271    4.592928    2.012276
     23          1           0        0.641675    5.366800    1.958141
     24          1           0       -1.071475    5.023898    1.933586
     25          1           0       -0.006048    4.080215    2.947191
     26          6           0        0.120224    1.952383    2.606689
     27          1           0        1.106108    2.349295    2.730757
     28          1           0        0.144229    0.890590    2.736761
     29          6           0       -3.205224   -0.381178    1.987238
     30          6           0       -4.284165    0.444088    2.305506
     31          6           0       -2.392197   -0.888132    3.000911
     32          6           0       -4.549540    0.762823    3.637123
     33          1           0       -4.924489    0.844223    1.506057
     34          6           0       -2.658108   -0.570194    4.333058
     35          1           0       -1.541888   -1.538729    2.750257
     36          6           0       -3.736488    0.255252    4.651290
     37          1           0       -5.399579    1.413809    3.888016
     38          1           0       -2.017147   -0.970384    5.132115
     39          1           0       -3.945958    0.506654    5.701155
     40          6           0       -0.820116    2.576760    3.654312
     41          6           0       -0.695369    2.228105    4.999433
     42          6           0       -1.796439    3.490902    3.258477
     43          6           0       -1.547238    2.793003    5.948344
     44          1           0        0.073943    1.506801    5.311075
     45          6           0       -2.648002    4.056810    4.207687
     46          1           0       -1.894782    3.765944    2.198378
     47          6           0       -2.523654    3.707928    5.552438
     48          1           0       -1.449382    2.517763    7.008515
     49          1           0       -3.417427    4.777855    3.895351
     50          1           0       -3.195169    4.153243    6.300808
 ---------------------------------------------------------------------
                    Distance matrix (angstroms):
                    1          2          3          4          5
     1  C    0.000000
     2  H    1.070000   0.000000
     3  H    1.070000   1.747303   0.000000
     4  C    1.540000   2.148263   2.148263   0.000000
     5  H    2.148263   2.468777   2.468915   1.070000   0.000000
     6  H    2.148263   3.024611   2.468777   1.070000   1.747303
     7  N    1.470000   2.086720   2.086720   2.457987   3.380966
     8  N    2.457987   2.690168   3.380966   1.470000   2.086720
     9  C    2.400500   2.389732   2.949540   3.648697   4.444152
    10  H    3.330209   3.444578   3.821878   4.461131   5.349833
    11  H    2.587373   2.442333   2.798140   4.061193   4.691775
    12  C    2.400500   3.241248   2.389732   3.273200   4.141522
    13  H    2.596464   3.313818   2.187391   3.726658   4.409381
    14  H    3.330897   4.063665   3.427883   4.164768   5.105731
    15  C    2.908038   2.416488   3.732815   3.847269   4.513840
    16  H    3.126509   2.812402   4.107195   3.659819   4.409342
    17  H    3.921061   3.369852   4.660157   4.916790   5.560340
    18  H    2.678577   1.850566   3.454676   3.598894   4.034950
    19  C    3.326871   3.142718   4.184069   2.400500   2.372327
    20  H    4.091156   3.802782   5.040724   3.320181   3.428272
    21  H    3.073204   2.605887   3.838580   2.525475   2.277827
    22  C    4.294365   4.291433   4.941437   3.001359   2.590366
    23  H    5.235928   5.097922   5.913393   4.029574   3.592111
    24  H    4.182078   4.193891   4.623519   2.937819   2.183345
    25  H    4.541545   4.763152   5.176178   3.081217   2.879939
    26  C    3.616359   4.074500   4.417637   2.400500   2.990972
    27  H    4.479996   4.765183   5.349543   3.294576   3.733609
    28  H    3.762023   4.354032   4.543311   2.833204   3.656516
    29  C    2.895214   3.943307   2.775487   3.070297   3.866214
    30  C    3.202350   4.232694   2.695766   3.226243   3.673574
    31  C    3.863010   4.877796   3.997975   3.649581   4.521405
    32  C    4.320201   5.340346   3.886944   3.908791   4.187252
    33  H    3.061196   3.960784   2.238912   3.407555   3.665224
    34  C    4.831028   5.865620   4.881673   4.265762   4.948690
    35  H    4.210186   5.119326   4.539416   4.101734   5.085943
    36  C    5.020944   6.063756   4.836737   4.379058   4.799440
    37  H    4.941220   5.887177   4.363571   4.508521   4.545510
    38  H    5.724865   6.721861   5.885375   5.054252   5.753513
    39  H    6.009759   7.028991   5.818339   5.224300   5.522262
    40  C    4.095107   4.707954   4.603805   2.622702   2.851667
    41  C    5.311282   6.018115   5.736009   3.913284   4.166525
    42  C    3.836318   4.381198   4.129540   2.344478   2.051666
    43  C    6.131204   6.877173   6.360876   4.729042   4.760564
    44  H    5.839407   6.544468   6.359018   4.547138   4.972582
    45  C    4.909716   5.502545   4.961725   3.542613   3.084484
    46  H    3.159001   3.520969   3.479165   1.768079   1.101624
    47  C    5.961609   6.657808   6.026633   4.580684   4.328911
    48  H    7.133281   7.915038   7.345896   5.769652   5.849219
    49  H    5.173389   5.675595   5.062684   3.967023   3.270730
    50  H    6.871467   7.572325   6.823454   5.551559   5.215310
                    6          7          8          9         10
     6  H    0.000000
     7  N    2.690168   0.000000
     8  N    2.086720   2.875857   0.000000
     9  C    4.093113   1.470000   3.810519   0.000000
    10  H    4.745122   2.086720   4.506963   1.070000   0.000000
    11  H    4.539988   2.086720   4.491842   1.070000   1.747303
    12  C    3.059283   1.470000   4.003311   2.400500   2.587374
    13  H    3.610620   2.086720   4.671028   2.660789   2.955080
    14  H    3.913539   2.086720   4.656831   2.596465   2.321740
    15  C    4.561572   2.457987   3.538328   1.540000   2.148263
    16  H    4.318467   2.589928   2.981812   2.148263   2.556725
    17  H    5.619881   3.369420   4.550232   2.148263   2.389621
    18  H    4.482308   2.800586   3.414114   2.148263   3.015217
    19  C    3.215969   4.061358   1.470000   4.728602   5.533788
    20  H    4.085219   4.580037   2.086720   5.043801   5.745325
    21  H    3.524254   4.039873   2.086720   4.522497   5.447182
    22  C    3.524443   5.180824   2.457987   6.067502   6.876745
    23  H    4.588250   6.102229   3.332384   6.867616   7.670785
    24  H    3.452506   5.295317   2.921403   6.230474   7.121244
    25  H    3.289442   5.245607   2.502921   6.291792   6.998464
    26  C    2.372327   3.734567   1.470000   4.827660   5.311781
    27  H    3.406888   4.590573   2.086720   5.513869   5.966838
    28  H    2.571292   3.472043   2.086720   4.572957   4.859339
    29  C    2.376512   2.457987   3.949815   3.763108   4.002584
    30  C    2.477086   3.355494   4.444701   4.653715   5.081160
    31  C    2.799690   3.221853   4.135569   4.507074   4.551119
    32  C    2.968383   4.562015   5.040375   5.941492   6.348522
    33  H    2.946559   3.480206   4.779239   4.591131   5.137296
    34  C    3.243266   4.465220   4.770932   5.827898   5.933236
    35  H    3.425152   3.247539   4.255295   4.322565   4.155642
    36  C    3.317390   5.015380   5.187677   6.438815   6.708110
    37  H    3.670280   5.403791   5.740459   6.744362   7.232127
    38  H    4.065112   5.256999   5.312786   6.564431   6.570996
    39  H    4.170356   6.079761   5.970330   7.516245   7.790890
    40  C    2.207312   4.504557   2.457987   5.802970   6.357233
    41  C    3.270246   5.535537   3.756280   6.881379   7.303575
    42  C    2.099307   4.661450   2.744205   5.952359   6.676837
    43  C    4.006034   6.513429   4.864586   7.923414   8.392064
    44  H    3.915889   5.811873   4.148504   7.087804   7.370552
    45  C    3.124915   5.789665   4.133741   7.132154   7.853441
    46  H    2.023894   4.224905   2.334467   5.378556   6.218598
    47  C    3.947763   6.623200   5.015402   8.033744   8.637046
    48  H    4.991308   7.406615   5.856717   8.822499   9.213580
    49  H    3.698123   6.239512   4.747371   7.518576   8.320948
    50  H    4.907571   7.578620   6.079941   8.999092   9.609774
                   11         12         13         14         15
    11  H    0.000000
    12  C    2.670488   0.000000
    13  H    2.483191   1.070000   0.000000
    14  H    2.983861   1.070000   1.747303   0.000000
    15  C    2.148263   3.762232   4.099044   4.000852   0.000000
    16  H    3.015217   3.959768   4.532542   4.146800   1.070000
    17  H    2.556725   4.522722   4.785183   4.586664   1.070000
    18  H    2.389621   4.152310   4.336152   4.615953   1.070000
    19  C    5.283198   5.296788   5.824927   6.002913   4.068272
    20  H    5.698662   5.904112   6.506833   6.480540   4.126538
    21  H    4.887702   5.314348   5.663546   6.094287   3.807723
    22  C    6.570377   6.207290   6.716721   6.987545   5.565169
    23  H    7.378876   7.204680   7.716859   7.954914   6.181092
    24  H    6.579763   6.207302   6.571037   7.094800   5.872316
    25  H    6.888545   6.124833   6.743011   6.843254   5.943493
    26  C    5.622935   4.557505   5.392560   5.063347   4.692083
    27  H    6.356777   5.526717   6.376142   5.965076   5.120713
    28  H    5.455667   4.111394   5.066358   4.428823   4.636054
    29  C    4.100106   1.540000   2.148263   2.148263   4.909934
    30  C    4.757935   2.542919   2.637155   3.337750   5.751545
    31  C    5.078589   2.542728   3.385044   2.696994   5.494740
    32  C    6.118989   3.828019   4.017050   4.508204   6.937646
    33  H    4.453093   2.741238   2.415678   3.649715   5.705498
    34  C    6.372016   3.828169   4.543414   4.056850   6.726989
    35  H    5.047627   2.741526   3.727278   2.531452   5.234476
    36  C    6.813836   4.330065   4.794040   4.794091   7.363518
    37  H    6.805301   4.707376   4.717991   5.454011   7.712213
    38  H    7.208319   4.707326   5.505849   4.778032   7.370680
    39  H    7.897969   5.429745   5.873615   5.873810   8.388457
    40  C    6.445791   5.017097   5.733056   5.662494   5.881612
    41  C    7.567785   5.811443   6.583259   6.328492   7.063811
    42  C    6.392555   5.157347   5.645474   5.995108   6.060180
    43  C    8.503078   6.617668   7.266731   7.204463   8.205322
    44  H    7.878912   6.075841   6.956426   6.423380   7.244716
    45  C    7.477047   6.052234   6.430300   6.914358   7.359582
    46  H    5.722922   4.908987   5.281819   5.824688   5.379861
    47  C    8.463026   6.725006   7.198166   7.469178   8.334445
    48  H    9.432331   7.405812   8.082751   7.903860   9.146914
    49  H    7.722973   6.483330   6.696435   7.425955   7.753705
    50  H    9.367689   7.576619   7.972221   8.331491   9.353325
                   16         17         18         19         20
    16  H    0.000000
    17  H    1.747303   0.000000
    18  H    1.747303   1.747303   0.000000
    19  C    3.564035   4.978711   3.634430   0.000000
    20  H    3.457476   4.895063   3.795686   1.070000   0.000000
    21  H    3.570371   4.682340   3.125682   1.070000   1.747303
    22  C    5.063375   6.504277   5.098271   1.540000   2.148263
    23  H    5.638426   7.037347   5.670966   2.148263   2.321153
    24  H    5.542343   6.844295   5.287822   2.148263   2.985108
    25  H    5.336102   6.913924   5.640973   2.148263   2.653310
    26  C    3.952771   5.650363   4.762530   2.400500   2.741291
    27  H    4.257667   5.991903   5.178029   2.456628   2.415360
    28  H    3.864708   5.539712   4.933642   3.294577   3.534089
    29  C    4.881298   5.793712   5.188599   5.306706   6.024254
    30  C    5.822016   6.685741   5.802172   5.606925   6.485666
    31  C    5.213512   6.352514   5.915020   5.569695   6.153040
    32  C    6.878306   7.912711   6.961843   6.129140   7.028159
    33  H    5.959937   6.604317   5.619172   5.783621   6.715189
    34  C    6.372248   7.633906   7.056949   6.096077   6.723409
    35  H    4.850184   5.988359   5.826862   5.720020   6.131084
    36  C    7.118268   8.330930   7.519333   6.358730   7.139335
    37  H    7.715024   8.698299   7.619500   6.664850   7.629896
    38  H    6.893996   8.240411   7.774187   6.610474   7.121915
    39  H    8.094783   9.370449   8.514036   7.038728   7.812098
    40  C    5.291232   6.904574   5.816423   3.121794   3.743657
    41  C    6.410790   8.060027   7.104937   4.437536   4.927087
    42  C    5.669749   7.119652   5.772718   3.073990   3.960235
    43  C    7.638238   9.233835   8.161935   5.416722   6.017098
    44  H    6.488316   8.176474   7.426295   4.919474   5.218941
    45  C    7.028322   8.426034   7.033310   4.370174   5.254732
    46  H    5.108754   6.429694   4.947789   2.426438   3.445782
    47  C    7.905381   9.395951   8.130947   5.389225   6.154126
    48  H    8.540834  10.157183   9.166067   6.438925   6.969477
    49  H    7.546093   8.811979   7.303618   4.810336   5.762061
    50  H    8.964934  10.419618   9.116743   6.397655   7.180324
                   21         22         23         24         25
    21  H    0.000000
    22  C    2.148263   0.000000
    23  H    2.653309   1.070000   0.000000
    24  H    2.321152   1.070000   1.747303   0.000000
    25  H    2.985108   1.070000   1.747303   1.747303   0.000000
    26  C    3.320182   2.715187   3.514366   3.362650   2.158600
    27  H    3.507705   2.644507   3.149281   3.539894   2.068773
    28  H    4.132009   3.780151   4.570575   4.382609   3.200090
    29  C    5.508072   5.866358   6.916555   5.811249   5.573174
    30  C    5.697132   5.903023   6.972636   5.606636   5.651147
    31  C    6.013366   6.024556   7.029646   6.151064   5.511902
    32  C    6.355241   6.095108   7.138929   5.758102   5.667841
    33  H    5.668792   6.134362   7.186117   5.700718   6.061318
    34  C    6.641170   6.213854   7.195603   6.290369   5.529951
    35  H    6.226618   6.343069   7.285721   6.629956   5.828389
    36  C    6.798442   6.248062   7.249089   6.101491   5.608073
    37  H    6.806638   6.462266   7.473106   5.965319   6.089750
    38  H    7.278472   6.661639   7.569897   6.859759   5.858921
    39  H    7.533277   6.718128   7.660128   6.546963   5.989787
    40  C    3.923170   2.699373   3.577451   3.002093   1.850164
    41  C    5.294069   3.856891   4.570399   4.166213   2.849065
    42  C    3.571330   2.379380   3.339801   2.151973   1.910416
    43  C    6.166430   4.565146   5.228527   4.617524   3.610969
    44  H    5.863553   4.520496   5.144325   5.008931   3.495255
    45  C    4.769917   3.409352   4.195057   2.931251   2.927340
    46  H    2.659427   1.989164   3.008998   1.526564   2.055919
    47  C    5.948638   4.383265   5.068544   4.115421   3.642012
    48  H    7.229351   5.576946   6.164074   5.672604   4.584629
    49  H    4.994726   3.823204   4.536073   3.067989   3.608770
    50  H    6.895497   5.309820   5.920545   4.933635   4.628453
                   26         27         28         29         30
    26  C    0.000000
    27  H    1.070000   0.000000
    28  H    1.070000   1.747303   0.000000
    29  C    4.109481   5.157120   3.660330   0.000000
    30  C    4.665223   5.732861   4.471691   1.395160   0.000000
    31  C    3.812636   4.774102   3.109194   1.394829   2.416183
    32  C    4.927833   5.943463   4.781051   2.416205   1.394712
    33  H    5.280960   6.335080   5.216195   2.165414   1.099655
    34  C    4.130723   5.025943   3.540501   2.416183   2.789946
    35  H    3.869250   4.704146   2.957155   2.165365   3.413128
    36  C    4.683468   5.614642   4.373677   2.790065   2.416260
    37  H    5.692107   6.673706   5.686208   3.413229   2.165375
    38  H    4.414600   5.151845   3.724579   3.413055   3.889707
    39  H    5.310338   6.143449   5.066031   3.889745   3.413024
    40  C    1.540000   2.148263   2.148263   4.149370   4.285697
    41  C    2.542919   2.899465   2.759268   4.709676   4.829018
    42  C    2.542728   3.163311   3.286337   4.312045   4.047223
    43  C    3.828019   4.194042   4.098110   5.339917   5.126251
    44  H    2.741238   2.903997   2.647971   5.036397   5.399621
    45  C    3.828169   4.380670   4.470473   4.993660   4.398533
    46  H    2.741526   3.360902   3.565821   4.354361   4.093331
    47  C    4.330065   4.794052   4.794062   5.467722   4.928957
    48  H    4.707376   4.985792   4.840989   6.058059   5.869789
    49  H    4.707326   5.264652   5.398014   5.504685   4.696848
    50  H    5.429745   5.873711   5.873578   6.258432   5.559333
                   31         32         33         34         35
    31  C    0.000000
    32  C    2.790080   0.000000
    33  H    3.412938   2.165330   0.000000
    34  C    1.395138   2.416356   3.889601   0.000000
    35  H    1.099604   3.889684   4.320704   2.165471   0.000000
    36  C    2.416236   1.395427   3.413316   1.394825   3.412999
    37  H    3.889760   1.099680   2.494768   3.413209   4.989364
    38  H    2.165516   3.413506   4.989362   1.099761   2.494420
    39  H    3.413344   2.165678   4.320917   2.165606   4.320988
    40  C    3.860550   4.147200   4.945964   3.707051   4.274988
    41  C    4.072376   4.342531   5.657231   3.482367   4.468157
    42  C    4.426873   3.894272   4.456522   4.288322   5.061648
    43  C    4.790832   4.298511   5.910794   3.892849   5.384393
    44  H    4.141788   4.973149   6.316763   3.568546   4.294642
    45  C    5.096489   3.846004   4.775136   4.628714   5.887075
    46  H    4.748884   4.258693   4.265547   4.893017   5.344966
    47  C    5.258454   4.055403   5.507996   4.450538   6.028556
    48  H    5.343212   4.904802   6.719684   4.260818   5.881875
    49  H    5.827051   4.179575   4.842874   5.419389   6.687909
    50  H    6.078614   4.519346   6.076990   5.145030   6.909291
                   36         37         38         39         40
    36  C    0.000000
    37  H    2.165806   0.000000
    38  H    2.165528   4.321228   0.000000
    39  H    1.099680   2.494678   2.495147   0.000000
    40  C    3.858574   4.730598   4.024800   4.271509   0.000000
    41  C    3.641670   4.901828   3.463385   3.744615   1.395160
    42  C    4.021586   4.206335   4.843790   4.415070   1.394829
    43  C    3.593793   4.581230   3.879449   3.323004   2.416205
    44  H    4.064612   5.656252   3.246710   4.160776   2.165414
    45  C    3.979125   3.828685   5.150265   4.064327   2.416183
    46  H    4.661933   4.546540   5.572664   5.205741   2.165365
    47  C    3.768820   4.037850   4.724386   3.506169   2.790065
    48  H    3.988273   5.153668   4.001301   3.462174   3.413229
    49  H    4.596431   3.904585   6.044222   4.667272   3.413055
    50  H    4.267115   4.264445   5.385642   3.771059   3.889745
                   41         42         43         44         45
    41  C    0.000000
    42  C    2.416183   0.000000
    43  C    1.394712   2.790080   0.000000
    44  H    1.099655   3.412938   2.165330   0.000000
    45  C    2.789946   1.395138   2.416356   3.889601   0.000000
    46  H    3.413128   1.099604   3.889684   4.320704   2.165471
    47  C    2.416260   2.416236   1.395427   3.413316   1.394825
    48  H    2.165375   3.889760   1.099680   2.494768   3.413209
    49  H    3.889707   2.165516   3.413506   4.989362   1.099761
    50  H    3.413024   3.413344   2.165678   4.320917   2.165606
                   46         47         48         49         50
    46  H    0.000000
    47  C    3.412999   0.000000
    48  H    4.989364   2.165806   0.000000
    49  H    2.494420   2.165528   4.321228   0.000000
    50  H    4.320988   1.099680   2.494678   2.495147   0.000000
 Stoichiometry    C20H28N2
 Framework group  C1[X(C20H28N2)]
 Deg. of freedom   144
 Full point group                 C1      NOp   1
 Largest Abelian subgroup         C1      NOp   1
 Largest concise Abelian subgroup C1      NOp   1
                         Standard orientation:                         
 ---------------------------------------------------------------------
 Center     Atomic      Atomic             Coordinates (Angstroms)
 Number     Number       Type             X           Y           Z
 ---------------------------------------------------------------------
      1          6           0        2.059081    0.177660   -1.073501
      2          1           0        2.706250    0.981321   -1.356699
      3          1           0        1.950591   -0.499321   -1.894979
      4          6           0        0.679055    0.741582   -0.687342
      5          1           0        0.258968    1.260244   -1.523653
      6          1           0        0.031827   -0.062097   -0.404329
      7          7           0        2.636325   -0.534668    0.075533
      8          7           0        0.828067    1.671436    0.441404
      9          6           0        4.083757   -0.284056    0.130619
     10          1           0        4.518265   -0.873075    0.911106
     11          1           0        4.527638   -0.549780   -0.806002
     12          6           0        2.393995   -1.977219   -0.070142
     13          1           0        2.790340   -2.312779   -1.005669
     14          1           0        2.873891   -2.502024    0.729345
     15          6           0        4.335890    1.208681    0.413047
     16          1           0        3.704574    1.531674    1.214306
     17          1           0        5.360454    1.351888    0.686285
     18          1           0        4.117824    1.779642   -0.465219
     19          6           0        0.740013    3.054662   -0.048324
     20          1           0        1.079207    3.725034    0.713548
     21          1           0        1.352633    3.164554   -0.918680
     22          6           0       -0.722135    3.380756   -0.405234
     23          1           0       -0.892239    4.430633   -0.288090
     24          1           0       -0.912834    3.099565   -1.419860
     25          1           0       -1.377240    2.838641    0.244265
     26          6           0       -0.241495    1.429187    1.420308
     27          1           0       -0.406662    2.316497    1.995025
     28          1           0        0.045564    0.630481    2.071896
     29          6           0        0.878995   -2.250181   -0.026959
     30          6           0        0.162927   -2.399085   -1.215044
     31          6           0        0.222692   -2.348661    1.199873
     32          6           0       -1.209252   -2.645739   -1.176222
     33          1           0        0.680498   -2.320625   -2.182105
     34          6           0       -1.149725   -2.596366    1.238896
     35          1           0        0.786943   -2.231505    2.136368
     36          6           0       -1.865772   -2.744774    0.051129
     37          1           0       -1.773844   -2.762493   -2.112652
     38          1           0       -1.666850   -2.674371    2.206352
     39          1           0       -2.947681   -2.939315    0.081490
     40          6           0       -1.537421    1.047879    0.680863
     41          6           0       -2.628412    0.552570    1.395622
     42          6           0       -1.620555    1.197778   -0.703394
     43          6           0       -3.801996    0.206630    0.726111
     44          1           0       -2.562286    0.433787    2.486842
     45          6           0       -2.794767    0.852706   -1.373140
     46          1           0       -0.760841    1.588311   -1.266870
     47          6           0       -3.885372    0.357064   -0.658676
     48          1           0       -4.661750   -0.184375    1.289347
     49          1           0       -2.860168    0.971389   -2.464520
     50          1           0       -4.810825    0.084290   -1.186338
 ---------------------------------------------------------------------
 Rotational constants (GHZ):           0.3998637           0.2791792           0.1964582
 Standard basis: 6-31G(d) (6D, 7F)
 There are   386 symmetry adapted cartesian basis functions of A   symmetry.
 There are   386 symmetry adapted basis functions of A   symmetry.
   386 basis functions,   728 primitive gaussians,   386 cartesian basis functions
    81 alpha electrons       81 beta electrons
       nuclear repulsion energy      1954.3560758773 Hartrees.
 NAtoms=   50 NActive=   50 NUniq=   50 SFac= 1.00D+00 NAtFMM=   60 NAOKFM=F Big=F
 Integral buffers will be    131072 words long.
 Raffenetti 2 integral format.
 Two-electron integral symmetry is turned on.
 ------------------------------------------------------------------------------
 Polarizable Continuum Model (PCM)
 =================================
 Model                : PCM.
 Atomic radii         : SMD-Coulomb.
 Polarization charges : Total charges.
 Charge compensation  : None.
 Solution method      : On-the-fly selection.
 Cavity type          : VdW (van der Waals Surface) (Alpha=1.000).
 Cavity algorithm     : GePol (No added spheres)
                        Default sphere list used, NSphG=   50.
                        Lebedev-Laikov grids with approx.  5.0 points / Ang**2.
                        Smoothing algorithm: York/Karplus (Gamma=1.0000).
                        Polarization charges: spherical gaussians, with
                                              point-specific exponents (IZeta= 3).
                        Self-potential: point-specific (ISelfS= 7).
                        Self-field    : sphere-specific E.n sum rule (ISelfD= 2).
 1st derivatives      : Analytical E(r).r(x)/FMM algorithm (CHGder, D1EAlg=3).
                        Cavity 1st derivative terms included.
 Solvent              : Toluene, Eps=   2.374100 Eps(inf)=   2.238315
 ------------------------------------------------------------------------------
 ------------------------------------------------------------------------------
 Atomic radii for non-electrostatic terms: SMD-CDS.
 ------------------------------------------------------------------------------
 Nuclear repulsion after PCM non-electrostatic terms =     1954.3437577345 Hartrees.
 One-electron integrals computed using PRISM.
 NBasis=   386 RedAO= T EigKep=  4.32D-04  NBF=   386
 NBsUse=   386 1.00D-06 EigRej= -1.00D+00 NBFU=   386
 ExpMin= 1.61D-01 ExpMax= 4.17D+03 ExpMxC= 6.27D+02 IAcc=3 IRadAn=         5 AccDes= 0.00D+00
 Harris functional with IExCor=  402 and IRadAn=       5 diagonalized for initial guess.
 HarFok:  IExCor=  402 AccDes= 0.00D+00 IRadAn=         5 IDoV= 1 UseB2=F ITyADJ=14
 ICtDFT=  3500011 ScaDFX=  1.000000  1.000000  1.000000  1.000000
 FoFCou: FMM=F IPFlag=           0 FMFlag=      100000 FMFlg1=           0
         NFxFlg=           0 DoJE=T BraDBF=F KetDBF=T FulRan=T
         wScrn=  0.000000 ICntrl=       500 IOpCl=  0 I1Cent=   200000004 NGrid=           0
         NMat0=    1 NMatS0=      1 NMatT0=    0 NMatD0=    1 NMtDS0=    0 NMtDT0=    0
 Petite list used in FoFCou.
 Requested convergence on RMS density matrix=1.00D-08 within 128 cycles.
 Requested convergence on MAX density matrix=1.00D-06.
 Requested convergence on             energy=1.00D-06.
 No special actions if energy rises.
 Inv3:  Mode=1 IEnd=    31415088.
 Iteration    1 A*A^-1 deviation from unit magnitude is 8.55D-15 for   3226.
 Iteration    1 A*A^-1 deviation from orthogonality  is 1.94D-15 for   3236   1593.
 Iteration    1 A^-1*A deviation from unit magnitude is 8.44D-15 for   3226.
 Iteration    1 A^-1*A deviation from orthogonality  is 2.02D-15 for   1633   1082.
 Error on total polarization charges =  0.03380
 SCF Done:  E(RB3LYP) =  -888.309865739     A.U. after   12 cycles
            NFock= 12  Conv=0.76D-08     -V/T= 2.0081
 SMD-CDS (non-electrostatic) energy       (kcal/mol) =      -7.73
 (included in total energy above)

 **********************************************************************

            Population analysis using the SCF Density.

 **********************************************************************

 Orbital symmetries:
       Occupied  (A) (A) (A) (A) (A) (A) (A) (A) (A) (A) (A) (A)
                 (A) (A) (A) (A) (A) (A) (A) (A) (A) (A) (A) (A)
                 (A) (A) (A) (A) (A) (A) (A) (A) (A) (A) (A) (A)
                 (A) (A) (A) (A) (A) (A) (A) (A) (A) (A) (A) (A)
                 (A) (A) (A) (A) (A) (A) (A) (A) (A) (A) (A) (A)
                 (A) (A) (A) (A) (A) (A) (A) (A) (A) (A) (A) (A)
                 (A) (A) (A) (A) (A) (A) (A) (A) (A)
       Virtual   (A) (A) (A) (A) (A) (A) (A) (A) (A) (A) (A) (A)
                 (A) (A) (A) (A) (A) (A) (A) (A) (A) (A) (A) (A)
                 (A) (A) (A) (A) (A) (A) (A) (A) (A) (A) (A) (A)
                 (A) (A) (A) (A) (A) (A) (A) (A) (A) (A) (A) (A)
                 (A) (A) (A) (A) (A) (A) (A) (A) (A) (A) (A) (A)
                 (A) (A) (A) (A) (A) (A) (A) (A) (A) (A) (A) (A)
                 (A) (A) (A) (A) (A) (A) (A) (A) (A) (A) (A) (A)
                 (A) (A) (A) (A) (A) (A) (A) (A) (A) (A) (A) (A)
                 (A) (A) (A) (A) (A) (A) (A) (A) (A) (A) (A) (A)
                 (A) (A) (A) (A) (A) (A) (A) (A) (A) (A) (A) (A)
                 (A) (A) (A) (A) (A) (A) (A) (A) (A) (A) (A) (A)
                 (A) (A) (A) (A) (A) (A) (A) (A) (A) (A) (A) (A)
                 (A) (A) (A) (A) (A) (A) (A) (A) (A) (A) (A) (A)
                 (A) (A) (A) (A) (A) (A) (A) (A) (A) (A) (A) (A)
                 (A) (A) (A) (A) (A) (A) (A) (A) (A) (A) (A) (A)
                 (A) (A) (A) (A) (A) (A) (A) (A) (A) (A) (A) (A)
                 (A) (A) (A) (A) (A) (A) (A) (A) (A) (A) (A) (A)
                 (A) (A) (A) (A) (A) (A) (A) (A) (A) (A) (A) (A)
                 (A) (A) (A) (A) (A) (A) (A) (A) (A) (A) (A) (A)
                 (A) (A) (A) (A) (A) (A) (A) (A) (A) (A) (A) (A)
                 (A) (A) (A) (A) (A) (A) (A) (A) (A) (A) (A) (A)
                 (A) (A) (A) (A) (A) (A) (A) (A) (A) (A) (A) (A)
                 (A) (A) (A) (A) (A) (A) (A) (A) (A) (A) (A) (A)
                 (A) (A) (A) (A) (A) (A) (A) (A) (A) (A) (A) (A)
                 (A) (A) (A) (A) (A) (A) (A) (A) (A) (A) (A) (A)
                 (A) (A) (A) (A) (A)
 The electronic state is 1-A.
 Alpha  occ. eigenvalues --  -14.30843 -14.30557 -10.19411 -10.19382 -10.19081
 Alpha  occ. eigenvalues --  -10.18688 -10.18482 -10.18310 -10.18300 -10.18111
 Alpha  occ. eigenvalues --  -10.18029 -10.18020 -10.17814 -10.17775 -10.17691
 Alpha  occ. eigenvalues --  -10.17602 -10.17569 -10.17442 -10.17310 -10.16105
 Alpha  occ. eigenvalues --  -10.15216 -10.14249  -0.93037  -0.90741  -0.84519
 Alpha  occ. eigenvalues --   -0.83876  -0.76001  -0.75558  -0.75042  -0.74784
 Alpha  occ. eigenvalues --   -0.73528  -0.72451  -0.71281  -0.66995  -0.64545
 Alpha  occ. eigenvalues --   -0.63582  -0.59565  -0.58831  -0.58026  -0.57431
 Alpha  occ. eigenvalues --   -0.56851  -0.55805  -0.51916  -0.49993  -0.48993
 Alpha  occ. eigenvalues --   -0.48154  -0.47316  -0.46186  -0.45182  -0.44905
 Alpha  occ. eigenvalues --   -0.44385  -0.43757  -0.42556  -0.41689  -0.41164
 Alpha  occ. eigenvalues --   -0.40679  -0.40057  -0.39792  -0.39374  -0.38606
 Alpha  occ. eigenvalues --   -0.37524  -0.37133  -0.36706  -0.36133  -0.35670
 Alpha  occ. eigenvalues --   -0.35075  -0.34598  -0.33666  -0.33336  -0.33103
 Alpha  occ. eigenvalues --   -0.32799  -0.32494  -0.32215  -0.31042  -0.28238
 Alpha  occ. eigenvalues --   -0.24873  -0.23546  -0.23095  -0.21346  -0.20093
 Alpha  occ. eigenvalues --   -0.19549
 Alpha virt. eigenvalues --    0.00265   0.00524   0.01064   0.01979   0.07467
 Alpha virt. eigenvalues --    0.09427   0.10545   0.11542   0.11899   0.12698
 Alpha virt. eigenvalues --    0.13253   0.14379   0.15267   0.15441   0.15718
 Alpha virt. eigenvalues --    0.16004   0.16174   0.16401   0.17226   0.17774
 Alpha virt. eigenvalues --    0.18039   0.18503   0.18831   0.19129   0.19606
 Alpha virt. eigenvalues --    0.19764   0.20330   0.20484   0.21631   0.21712
 Alpha virt. eigenvalues --    0.22196   0.22321   0.22725   0.23210   0.24172
 Alpha virt. eigenvalues --    0.25075   0.26164   0.27003   0.27307   0.27770
 Alpha virt. eigenvalues --    0.29150   0.29851   0.30455   0.31569   0.31776
 Alpha virt. eigenvalues --    0.33318   0.34056   0.34340   0.34472   0.35249
 Alpha virt. eigenvalues --    0.35715   0.38131   0.40293   0.46395   0.47551
 Alpha virt. eigenvalues --    0.47860   0.50323   0.51544   0.52095   0.52555
 Alpha virt. eigenvalues --    0.53538   0.54378   0.54711   0.55064   0.55330
 Alpha virt. eigenvalues --    0.56388   0.57188   0.57561   0.57723   0.58235
 Alpha virt. eigenvalues --    0.59071   0.59771   0.60107   0.60785   0.61532
 Alpha virt. eigenvalues --    0.61735   0.62183   0.62439   0.62719   0.63848
 Alpha virt. eigenvalues --    0.63981   0.64838   0.65263   0.65859   0.67502
 Alpha virt. eigenvalues --    0.68897   0.69977   0.70632   0.70877   0.72276
 Alpha virt. eigenvalues --    0.72578   0.73409   0.74896   0.75815   0.76699
 Alpha virt. eigenvalues --    0.78180   0.79616   0.79805   0.80788   0.81748
 Alpha virt. eigenvalues --    0.82391   0.83422   0.83662   0.83878   0.84260
 Alpha virt. eigenvalues --    0.84436   0.85050   0.85139   0.85622   0.86426
 Alpha virt. eigenvalues --    0.86490   0.87438   0.87831   0.88869   0.89285
 Alpha virt. eigenvalues --    0.89540   0.90811   0.91041   0.91609   0.92695
 Alpha virt. eigenvalues --    0.93630   0.94271   0.95499   0.95869   0.95968
 Alpha virt. eigenvalues --    0.96534   0.97218   0.97597   0.98131   0.98708
 Alpha virt. eigenvalues --    1.00507   1.00999   1.01393   1.01868   1.03111
 Alpha virt. eigenvalues --    1.04156   1.04889   1.05457   1.07027   1.07973
 Alpha virt. eigenvalues --    1.09005   1.10367   1.11702   1.13037   1.13538
 Alpha virt. eigenvalues --    1.14464   1.16220   1.16463   1.18194   1.18678
 Alpha virt. eigenvalues --    1.20549   1.21936   1.23420   1.23967   1.25743
 Alpha virt. eigenvalues --    1.27220   1.28378   1.30832   1.33837   1.35357
 Alpha virt. eigenvalues --    1.36767   1.39441   1.40946   1.41108   1.42511
 Alpha virt. eigenvalues --    1.44525   1.45166   1.46946   1.47958   1.49194
 Alpha virt. eigenvalues --    1.49706   1.50291   1.51596   1.52014   1.52244
 Alpha virt. eigenvalues --    1.52994   1.54081   1.57419   1.58995   1.62601
 Alpha virt. eigenvalues --    1.64266   1.65948   1.68520   1.71480   1.73188
 Alpha virt. eigenvalues --    1.76761   1.77734   1.80532   1.81920   1.83101
 Alpha virt. eigenvalues --    1.83706   1.84439   1.85761   1.87465   1.89925
 Alpha virt. eigenvalues --    1.90583   1.91042   1.91883   1.92194   1.92823
 Alpha virt. eigenvalues --    1.93548   1.94646   1.95383   1.96431   1.97904
 Alpha virt. eigenvalues --    1.98615   1.99953   2.01033   2.02597   2.03151
 Alpha virt. eigenvalues --    2.04670   2.06231   2.06507   2.06749   2.07683
 Alpha virt. eigenvalues --    2.08416   2.09728   2.10961   2.12459   2.13627
 Alpha virt. eigenvalues --    2.15620   2.16425   2.17539   2.18420   2.20074
 Alpha virt. eigenvalues --    2.20635   2.21991   2.22682   2.24024   2.24573
 Alpha virt. eigenvalues --    2.25488   2.27731   2.28072   2.29754   2.30480
 Alpha virt. eigenvalues --    2.31513   2.32503   2.33175   2.33995   2.35013
 Alpha virt. eigenvalues --    2.35907   2.37509   2.37751   2.39125   2.39617
 Alpha virt. eigenvalues --    2.42419   2.43738   2.45184   2.49050   2.51320
 Alpha virt. eigenvalues --    2.53829   2.55259   2.56911   2.58685   2.60205
 Alpha virt. eigenvalues --    2.60669   2.61283   2.62521   2.64394   2.64900
 Alpha virt. eigenvalues --    2.67451   2.68182   2.69682   2.71433   2.74145
 Alpha virt. eigenvalues --    2.74518   2.75092   2.76069   2.77326   2.77750
 Alpha virt. eigenvalues --    2.80132   2.83204   2.84763   2.87229   2.87855
 Alpha virt. eigenvalues --    2.88909   2.92128   2.96732   2.99789   3.06428
 Alpha virt. eigenvalues --    3.11189   3.41879   3.42806   4.08521   4.09848
 Alpha virt. eigenvalues --    4.11076   4.16293   4.17882   4.19808   4.24287
 Alpha virt. eigenvalues --    4.24324   4.28619   4.31488   4.33740   4.36876
 Alpha virt. eigenvalues --    4.38394   4.43579   4.45156   4.47084   4.53092
 Alpha virt. eigenvalues --    4.54863   4.59987   4.67657   4.73434   4.77429
          Condensed to atoms (all electrons):
               1          2          3          4          5          6
     1  C    5.094614   0.370915   0.339768   0.339149  -0.048860  -0.041592
     2  H    0.370915   0.589322  -0.033690  -0.030540  -0.003005   0.004435
     3  H    0.339768  -0.033690   0.643427  -0.044066   0.005303  -0.003341
     4  C    0.339149  -0.030540  -0.044066   5.210643   0.384809   0.386166
     5  H   -0.048860  -0.003005   0.005303   0.384809   0.716679  -0.031430
     6  H   -0.041592   0.004435  -0.003341   0.386166  -0.031430   0.521885
     7  N    0.263212  -0.037111  -0.042405  -0.053896   0.004652  -0.004318
     8  N   -0.062180  -0.005899   0.004821   0.282718  -0.064154  -0.035460
     9  C   -0.042937  -0.009591  -0.002076   0.005362  -0.000302  -0.000054
    10  H    0.006957   0.000484  -0.000395  -0.000281   0.000003   0.000009
    11  H   -0.012132   0.001562   0.006508  -0.000375   0.000044  -0.000016
    12  C   -0.037218   0.004924  -0.012218  -0.001711  -0.000021  -0.001200
    13  H   -0.019085   0.000623   0.016415  -0.000680   0.000075   0.000054
    14  H    0.007875  -0.000314   0.000202  -0.000313   0.000005  -0.000075
    15  C   -0.009687  -0.000576   0.000042   0.000050  -0.000010  -0.000022
    16  H   -0.001501   0.000235   0.000204  -0.000739   0.000102   0.000024
    17  H    0.000440  -0.000132   0.000012   0.000002   0.000002   0.000001
    18  H   -0.002804   0.006212   0.000136  -0.000724   0.000021  -0.000004
    19  C   -0.003125   0.001716   0.000001  -0.043926  -0.006673   0.006398
    20  H   -0.000093  -0.000187   0.000006   0.007233   0.000191  -0.000299
    21  H    0.002033   0.002009  -0.000200  -0.006188   0.001709   0.000182
    22  C   -0.000297  -0.000086   0.000013  -0.019431   0.002558   0.001027
    23  H    0.000032   0.000002  -0.000000   0.000194  -0.000998  -0.000054
    24  H   -0.000066  -0.000004  -0.000006   0.001412   0.000716   0.000437
    25  H   -0.000294   0.000005   0.000004  -0.000685   0.004739   0.001080
    26  C    0.004897  -0.000043  -0.000203  -0.064989   0.010869  -0.009007
    27  H   -0.000156  -0.000001   0.000006   0.006850  -0.000582   0.000427
    28  H    0.000078   0.000019   0.000004   0.000817  -0.000417   0.000185
    29  C   -0.004432   0.000435  -0.005675  -0.005713   0.000041   0.004765
    30  C    0.002276  -0.000040   0.000360  -0.008020   0.000557   0.001390
    31  C   -0.002790   0.000009   0.000709  -0.001199   0.000157  -0.000140
    32  C    0.000117  -0.000005   0.000201  -0.001162  -0.000107   0.000012
    33  H   -0.002540   0.000041   0.005636  -0.000108   0.000135  -0.000297
    34  C    0.000002  -0.000001  -0.000016  -0.000026  -0.000000   0.000284
    35  H   -0.000009   0.000002   0.000010   0.000008   0.000002   0.000043
    36  C   -0.000030   0.000000  -0.000003   0.000279  -0.000022   0.000496
    37  H    0.000005   0.000000  -0.000006  -0.000025   0.000005   0.000027
    38  H   -0.000000  -0.000000   0.000000  -0.000005   0.000000   0.000018
    39  H   -0.000000   0.000000  -0.000000   0.000001   0.000000   0.000012
    40  C    0.001362  -0.000042  -0.000019  -0.021219   0.000284  -0.000273
    41  C    0.000024   0.000000  -0.000002   0.000191  -0.001087   0.000007
    42  C    0.006550   0.000010   0.000050  -0.081857  -0.092735  -0.002895
    43  C   -0.000001   0.000000   0.000000   0.000048  -0.000021   0.000048
    44  H   -0.000000  -0.000000   0.000000   0.000027   0.000009  -0.000023
    45  C   -0.000073  -0.000002   0.000017  -0.002419   0.005710  -0.000789
    46  H    0.003177  -0.000403   0.000186  -0.039411  -0.054382  -0.022850
    47  C    0.000001   0.000000  -0.000000   0.000087  -0.000206  -0.000131
    48  H    0.000000   0.000000  -0.000000   0.000000  -0.000001  -0.000003
    49  H    0.000001  -0.000000   0.000000   0.000309   0.000629  -0.000019
    50  H   -0.000000   0.000000   0.000000  -0.000000   0.000009   0.000006
               7          8          9         10         11         12
     1  C    0.263212  -0.062180  -0.042937   0.006957  -0.012132  -0.037218
     2  H   -0.037111  -0.005899  -0.009591   0.000484   0.001562   0.004924
     3  H   -0.042405   0.004821  -0.002076  -0.000395   0.006508  -0.012218
     4  C   -0.053896   0.282718   0.005362  -0.000281  -0.000375  -0.001711
     5  H    0.004652  -0.064154  -0.000302   0.000003   0.000044  -0.000021
     6  H   -0.004318  -0.035460  -0.000054   0.000009  -0.000016  -0.001200
     7  N    6.943585  -0.002411   0.312416  -0.040433  -0.049661   0.289674
     8  N   -0.002411   6.884423  -0.001869  -0.000004   0.000000   0.000829
     9  C    0.312416  -0.001869   4.904198   0.381812   0.348948  -0.048014
    10  H   -0.040433  -0.000004   0.381812   0.592600  -0.048203  -0.003637
    11  H   -0.049661   0.000000   0.348948  -0.048203   0.685042  -0.010662
    12  C    0.289674   0.000829  -0.048014  -0.003637  -0.010662   5.071746
    13  H   -0.044400  -0.000022  -0.010036  -0.001674   0.015963   0.326528
    14  H   -0.041825   0.000033  -0.005613   0.007402  -0.001763   0.365590
    15  C   -0.063754  -0.001517   0.384028  -0.032316  -0.051691   0.005988
    16  H    0.005603   0.008036  -0.034108  -0.003266   0.006726   0.000043
    17  H    0.004166   0.000132  -0.029419  -0.004272   0.002556  -0.000175
    18  H   -0.002342  -0.000107  -0.035007   0.005153  -0.007690  -0.000108
    19  C    0.000623   0.326218  -0.000037   0.000000   0.000006  -0.000028
    20  H    0.000033  -0.041532   0.000006   0.000000   0.000001   0.000000
    21  H   -0.000040  -0.039266  -0.000010   0.000000  -0.000003   0.000000
    22  C   -0.000020  -0.073441  -0.000002   0.000000  -0.000000   0.000001
    23  H   -0.000000   0.005998   0.000000  -0.000000   0.000000  -0.000000
    24  H    0.000000   0.001316   0.000000   0.000000   0.000000   0.000000
    25  H    0.000003  -0.018484  -0.000000   0.000000  -0.000000   0.000000
    26  C   -0.000366   0.302038  -0.000005   0.000001  -0.000001   0.000008
    27  H    0.000026  -0.037899   0.000000  -0.000000   0.000000   0.000001
    28  H    0.002603  -0.037747   0.000010  -0.000003   0.000004  -0.000157
    29  C   -0.063974  -0.000223   0.005716   0.000244  -0.000115   0.360708
    30  C   -0.003789   0.000305   0.000054   0.000002  -0.000077  -0.048824
    31  C    0.007085  -0.000218  -0.000021  -0.000036   0.000042  -0.052853
    32  C   -0.000099   0.000057   0.000005  -0.000000  -0.000000   0.006498
    33  H    0.000243   0.000000  -0.000067  -0.000000   0.000034  -0.010445
    34  C   -0.000071  -0.000046   0.000005  -0.000000  -0.000000   0.005877
    35  H    0.002298  -0.000004  -0.000131  -0.000005   0.000008  -0.008656
    36  C    0.000028   0.000004  -0.000000   0.000000   0.000000   0.000409
    37  H    0.000000   0.000000  -0.000000  -0.000000   0.000000  -0.000172
    38  H    0.000000  -0.000000  -0.000000  -0.000000   0.000000  -0.000169
    39  H    0.000000   0.000000   0.000000  -0.000000   0.000000   0.000006
    40  C   -0.000276  -0.043630  -0.000000  -0.000000  -0.000000   0.000035
    41  C   -0.000008   0.004592   0.000000  -0.000000  -0.000000  -0.000000
    42  C   -0.000101   0.000268   0.000002  -0.000000   0.000000   0.000007
    43  C   -0.000000  -0.000143  -0.000000   0.000000   0.000000  -0.000000
    44  H    0.000000   0.000125  -0.000000   0.000000   0.000000   0.000000
    45  C    0.000003   0.000925  -0.000000  -0.000000   0.000000  -0.000000
    46  H    0.000010   0.005357   0.000002   0.000000  -0.000000  -0.000010
    47  C   -0.000000  -0.000033   0.000000   0.000000  -0.000000  -0.000000
    48  H    0.000000   0.000001   0.000000  -0.000000   0.000000  -0.000000
    49  H    0.000000   0.000005  -0.000000   0.000000   0.000000  -0.000000
    50  H    0.000000  -0.000000  -0.000000   0.000000   0.000000   0.000000
              13         14         15         16         17         18
     1  C   -0.019085   0.007875  -0.009687  -0.001501   0.000440  -0.002804
     2  H    0.000623  -0.000314  -0.000576   0.000235  -0.000132   0.006212
     3  H    0.016415   0.000202   0.000042   0.000204   0.000012   0.000136
     4  C   -0.000680  -0.000313   0.000050  -0.000739   0.000002  -0.000724
     5  H    0.000075   0.000005  -0.000010   0.000102   0.000002   0.000021
     6  H    0.000054  -0.000075  -0.000022   0.000024   0.000001  -0.000004
     7  N   -0.044400  -0.041825  -0.063754   0.005603   0.004166  -0.002342
     8  N   -0.000022   0.000033  -0.001517   0.008036   0.000132  -0.000107
     9  C   -0.010036  -0.005613   0.384028  -0.034108  -0.029419  -0.035007
    10  H   -0.001674   0.007402  -0.032316  -0.003266  -0.004272   0.005153
    11  H    0.015963  -0.001763  -0.051691   0.006726   0.002556  -0.007690
    12  C    0.326528   0.365590   0.005988   0.000043  -0.000175  -0.000108
    13  H    0.672162  -0.046769  -0.000363   0.000062   0.000026  -0.000004
    14  H   -0.046769   0.584994   0.000188  -0.000023  -0.000020   0.000004
    15  C   -0.000363   0.000188   5.126023   0.368060   0.357421   0.381907
    16  H    0.000062  -0.000023   0.368060   0.534038  -0.024456  -0.030153
    17  H    0.000026  -0.000020   0.357421  -0.024456   0.582514  -0.028526
    18  H   -0.000004   0.000004   0.381907  -0.030153  -0.028526   0.560764
    19  C    0.000002  -0.000000   0.000135   0.000130  -0.000004   0.000195
    20  H    0.000000   0.000000   0.000078  -0.000039  -0.000005   0.000019
    21  H    0.000000  -0.000000   0.000024  -0.000123  -0.000002   0.000391
    22  C   -0.000000   0.000000   0.000007   0.000035   0.000000   0.000002
    23  H    0.000000  -0.000000   0.000000  -0.000001  -0.000000   0.000000
    24  H    0.000000  -0.000000  -0.000000  -0.000000  -0.000000  -0.000000
    25  H   -0.000000   0.000000  -0.000000   0.000002   0.000000   0.000000
    26  C   -0.000002  -0.000000  -0.000005   0.000022   0.000000  -0.000001
    27  H    0.000000   0.000000  -0.000004   0.000009   0.000000   0.000000
    28  H    0.000014  -0.000016  -0.000015   0.000008  -0.000000  -0.000002
    29  C   -0.037580  -0.021230  -0.000198  -0.000023   0.000002   0.000003
    30  C   -0.010340   0.004698   0.000001  -0.000001  -0.000000  -0.000001
    31  C    0.007144  -0.008165  -0.000015   0.000003   0.000000   0.000000
    32  C    0.000045  -0.000215  -0.000000  -0.000000   0.000000   0.000000
    33  H    0.007085   0.000043   0.000001   0.000000   0.000000  -0.000000
    34  C   -0.000201   0.000009  -0.000000  -0.000000   0.000000  -0.000000
    35  H    0.000282   0.003908  -0.000000   0.000006  -0.000000  -0.000000
    36  C   -0.000001   0.000014   0.000000   0.000000  -0.000000   0.000000
    37  H   -0.000000   0.000003   0.000000   0.000000  -0.000000  -0.000000
    38  H    0.000003  -0.000003   0.000000  -0.000000  -0.000000  -0.000000
    39  H   -0.000000  -0.000000  -0.000000   0.000000   0.000000   0.000000
    40  C   -0.000003   0.000001   0.000002   0.000011   0.000000   0.000000
    41  C   -0.000000  -0.000000   0.000000  -0.000000  -0.000000   0.000000
    42  C    0.000000  -0.000000  -0.000002  -0.000001   0.000000  -0.000001
    43  C    0.000000  -0.000000  -0.000000   0.000000   0.000000  -0.000000
    44  H    0.000000   0.000000  -0.000000   0.000000  -0.000000   0.000000
    45  C    0.000000   0.000000  -0.000000  -0.000000   0.000000  -0.000000
    46  H   -0.000002   0.000000   0.000001  -0.000001  -0.000000   0.000000
    47  C   -0.000000  -0.000000   0.000000   0.000000  -0.000000  -0.000000
    48  H    0.000000  -0.000000  -0.000000  -0.000000  -0.000000  -0.000000
    49  H    0.000000   0.000000  -0.000000   0.000000  -0.000000   0.000000
    50  H    0.000000   0.000000   0.000000   0.000000   0.000000   0.000000
[...]
 4,-0.00000951,-0.00000367,0.00001348,0.00000116,0.00000107,0.00000186,
 -0.00000076,-0.00000309,-0.00000028,-0.00000071,0.00000209,0.00000004,
 -0.00000024,-0.00000219,-0.00000082,0.00000208,0.03129648,-0.02751058,
 0.00141332,-0.02192289,-0.01318517,-0.05171520,-0.01251858,0.03589077,
 0.02832805,0.12304298,-0.20329308,-0.07750216,0.00122967,0.00385319,-0
 .00343967,0.06293954,-0.11536270,-0.01373252,0.00123440,0.00274557,-0.
 00520731,-0.18168282,0.41605664,-0.00004979,-0.00000489,0.00000795,0.0
 0000974,-0.00000276,0.00001018,-0.00000781,-0.00003083,-0.00004158,0.0
 0026842,0.00015364,0.00010041,-0.00004237,0.00000913,-0.00006664,0.000
 01878,-0.00001894,0.00002272,-0.00001947,-0.00004825,-0.00006841,0.000
 12943,0.00008864,-0.00063015,-0.00002820,0.00001114,0.00003081,0.00000
 326,-0.00001210,-0.00000193,-0.00000007,-0.00000065,-0.00001556,0.0000
 4828,0.00003625,0.00000111,-0.00001470,-0.00000349,-0.00000711,-0.0000
 0170,-0.00000815,0.00000143,0.00001774,-0.00000564,0.00000818,-0.00001
 418,0.00001803,-0.00000404,0.00000195,-0.00000810,-0.00001567,-0.00000
 750,-0.00000837,0.00001097,-0.00027985,-0.00017338,0.00002072,-0.00001
 986,-0.00007101,-0.00002716,0.00005846,0.00002807,-0.00006110,0.000069
 45,0.00001108,-0.00004139,-0.00000127,0.00003890,-0.00002753,-0.000016
 68,0.00001571,0.00000373,-0.00002685,0.00000571,-0.00000325,-0.0006277
 0,-0.00043657,0.00007770,-0.00012923,0.00005829,0.00000541,-0.00001543
 ,0.00018116,-0.00051478,0.00000038,-0.00001069,0.00001207,-0.00000013,
 -0.00000831,0.00001319,-0.00000779,-0.00003026,0.00000592,-0.00000167,
 0.00000226,-0.00000305,0.00000207,0.00000245,0.00000143,-0.00000602,-0
 .00000039,-0.00004338,-0.00000811,0.00002578,-0.00000993,0.00000611,0.
 00000255,0.00000356,-0.00000296,-0.00000022,-0.00000016,0.00000183,-0.
 00000889,0.00000706,-0.00001091,-0.00000174,0.00000308,0.00412587,0.00
 219358,-0.00081316,0.00905546,-0.02642798,-0.02124349,-0.02903833,0.00
 333449,-0.01670734,0.05893636,-0.11016846,-0.15572239,-0.00352049,-0.0
 0408004,-0.00217833,-0.11537449,0.01928825,-0.14784648,-0.00300201,-0.
 00478190,-0.00194605,0.15521052,0.21938139,0.58904628,-0.00003756,0.00
 002045,0.00000034,0.00000649,-0.00000128,0.00000465,-0.00000270,-0.000
 02114,-0.00002628,0.00014038,0.00007213,-0.00000653,-0.00002435,-0.000
 00132,-0.00003426,0.00000669,-0.00000059,0.00000571,-0.00000131,-0.000
 04636,-0.00003227,-0.00023797,-0.00002435,-0.00034217,-0.00002303,0.00
 000902,0.00002168,0.00000133,-0.00001024,-0.00000197,0.00000097,0.0000
 0014,-0.00001035,0.00002663,0.00002308,0.00000015,-0.00000864,-0.00000
 156,-0.00000540,0.00000074,-0.00000716,-0.00000029,0.00000852,-0.00000
 025,-0.00000098,-0.00000697,0.00001182,-0.00000124,0.00000264,-0.00000
 544,-0.00000935,-0.00000361,-0.00000795,0.00000910,-0.00011083,-0.0000
 4598,0.00007135,-0.00002208,-0.00001762,0.00001702,0.00002918,-0.00000
 225,-0.00003496,0.00001380,0.00000209,-0.00000647,0.00000349,0.0000152
 3,-0.00000940,-0.00000928,0.00000266,-0.00000807,0.00000199,-0.0000054
 5,0.00000207,-0.00012035,0.00043988,0.00044920,-0.00000406,-0.00002179
 ,-0.00005152,-0.00007854,-0.00000646,-0.00009978,-0.00000021,-0.000003
 44,0.00000374,-0.00000045,-0.00000664,0.00000662,-0.00001144,-0.000011
 24,0.00000092,0.00000246,-0.00000310,-0.00000153,0.00000194,0.00000254
 ,0.00000049,-0.00000359,-0.00000606,-0.00001803,-0.00000071,0.00001204
 ,-0.00000428,0.00000294,-0.00000417,0.00000061,-0.00000042,0.00000215,
 0.00000064,-0.00000024,0.00000498,0.00000233,-0.00000098,0.00000342,0.
 00000087,0.00300287,0.00085695,-0.00303914,-0.00519919,0.00377272,-0.0
 0193991,0.00040187,-0.00019708,0.00049598,-0.25924108,0.08334834,-0.10
 248749,-0.00023130,-0.00180012,0.00104848,0.00151975,0.00452856,0.0009
 1969,-0.00039581,-0.00043608,0.00024104,-0.01083951,0.00316819,-0.0084
 9679,0.27224656,-0.00002256,0.00001265,-0.00000939,-0.00000065,0.00000
 031,0.00000186,0.00000208,-0.00000783,-0.00000834,0.00004360,0.0000051
 8,-0.00006215,-0.00000747,0.00000005,-0.00001063,0.00000141,-0.0000000
 3,0.00000053,0.00000144,-0.00001382,0.00000710,-0.00023805,-0.00003894
 ,-0.00021059,-0.00000346,-0.00000023,-0.00000153,-0.00000063,-0.000003
 14,-0.00000152,0.00000176,-0.00000014,0.00000174,0.00000534,0.00000508
 ,-0.00000646,-0.00000056,-0.00000082,0.00000169,-0.00000119,-0.0000024
 3,-0.00000028,-0.00000171,0.00000304,-0.00000742,0.00000101,0.00000120
 ,0.00000198,-0.00000008,0.00000045,0.00000070,0.00000116,-0.00000316,0
 .00000265,-0.00002356,-0.00001002,0.00001647,0.00000287,0.00000885,0.0
 0000162,0.00000772,0.00000187,0.00000246,0.00000861,-0.00000183,-0.000
 00497,-0.00000202,-0.00000035,0.00000239,-0.00000255,0.00000006,0.0000
 0066,-0.00000353,0.00000523,-0.00000199,-0.00028668,0.00045742,-0.0000
 4812,-0.00000799,-0.00000082,-0.00000632,-0.00003606,0.00000312,-0.000
 00085,0.00000342,-0.00000074,-0.00000163,0.00000010,-0.00000129,0.0000
 0186,-0.00000637,0.00000151,0.00000117,0.00000092,-0.00000008,0.000000
 14,0.00000124,-0.00000008,0.00000154,0.00000093,0.00000175,-0.00000496
 ,0.00000103,-0.00000036,-0.00000395,-0.00000106,0.00000101,0.00000279,
 0.00000081,-0.00000049,0.00000036,-0.00000221,-0.00000230,0.00000330,-
 0.00000088,-0.00000068,-0.00000014,0.00171603,0.00266877,-0.00468799,-
 0.01223151,0.00692635,-0.00517839,-0.00016897,-0.00053905,-0.00045250,
 0.08309027,-0.07474103,0.02616768,-0.00141984,-0.00143256,0.00202220,0
 .00375770,0.00062216,-0.00531290,-0.00046770,-0.00052904,0.00055004,0.
 01943941,-0.00326515,0.01110541,-0.09227362,0.07133113,-0.00003019,0.0
 0001154,0.00001050,0.00000716,0.00000091,0.00000189,-0.00000150,-0.000
 01889,-0.00002205,0.00010325,0.00013990,-0.00003279,-0.00003939,-0.000
 00393,-0.00004918,0.00001119,-0.00000192,0.00000602,0.00000726,-0.0000
 3968,-0.00004086,-0.00024976,-0.00009195,-0.00034040,-0.00003451,0.000
 00944,0.00002639,0.00000268,-0.00000682,-0.00000220,0.00000558,0.00000
 026,-0.00001041,0.00001945,0.00001587,0.00000314,-0.00000684,-0.000000
 79,-0.00000575,0.00000078,-0.00000600,-0.00000021,0.00001513,-0.000001
 53,-0.00000560,-0.00001113,0.00000732,0.00000219,0.00000248,-0.0000059
 9,-0.00001046,-0.00000650,-0.00000339,0.00000682,-0.00013763,-0.000073
 23,0.00005120,-0.00000502,-0.00002548,0.00001822,0.00003210,0.00000376
 ,-0.00004922,0.00002621,0.00000297,-0.00001670,0.00000276,0.00001972,-
 0.00001355,-0.00000536,0.00000249,-0.00000164,-0.00000078,-0.00000903,
 0.00000459,-0.00080087,0.00083622,0.00040011,0.00004757,-0.00001379,-0
 .00005421,-0.00005293,-0.00010759,-0.00011454,-0.00000129,-0.00000226,
 0.00000566,0.00000023,-0.00000426,0.00000307,-0.00000672,-0.00001048,-
 0.00000232,0.00000104,-0.00000109,-0.00000184,0.00000068,0.00000193,-0
 .00000085,-0.00000084,-0.00000637,-0.00000737,-0.00000357,0.00001136,-
 0.00000022,0.00000298,-0.00000194,-0.00000190,-0.00000146,0.00000120,-
 0.00000014,0.00000113,0.00000442,-0.00000039,-0.00000028,0.00000143,0.
 00000125,-0.00211849,-0.00547223,-0.00229684,-0.02430957,0.01044169,-0
 .00684874,0.00042081,-0.00060655,-0.00077332,-0.10249754,0.02610617,-0
 .09927086,0.00153570,0.00164903,-0.00005053,-0.00001770,-0.00450363,0.
 00078715,0.00026772,0.00058062,-0.00021617,0.01376635,-0.00447749,0.00
 963835,0.11257409,-0.02598095,0.09910015,0.00001538,-0.00000187,0.0000
 0234,-0.00000434,0.00000062,-0.00000026,0.00000234,0.00000672,0.000010
 36,-0.00006110,-0.00001366,-0.00001987,0.00000795,-0.00000379,0.000007
 57,-0.00000058,-0.00000115,-0.00000343,-0.00000353,0.00000683,0.000010
 47,0.00007341,-0.00000482,0.00019675,0.00000448,-0.00000178,-0.0000079
 9,-0.00000097,0.00000165,-0.00000022,0.00000173,-0.00000046,0.00000490
 ,-0.00000462,-0.00000346,-0.00000731,0.00000177,-0.00000096,0.00000360
 ,-0.00000150,0.00000091,0.00000011,-0.00000101,0.00000153,-0.00000425,
 0.00000107,-0.00000303,0.00000222,-0.00000142,0.00000144,0.00000176,0.
 00000099,0.00000076,-0.00000156,0.00006054,0.00004987,-0.00001737,-0.0
 0000254,0.00000943,-0.00000801,-0.00001826,-0.00000852,0.00000640,-0.0
 0000459,-0.00000198,0.00000141,-0.00000583,-0.00000588,0.00001053,0.00
 000268,-0.00000510,-0.00000323,0.00001113,0.00000562,-0.00000161,0.000
 34100,-0.00023845,-0.00031057,-0.00009095,-0.00012436,-0.00008899,0.00
 000865,-0.00000055,0.00003546,0.00000294,0.00000045,-0.00000225,0.0000
 0017,0.00000186,-0.00000143,0.00000142,0.00000398,0.00000127,-0.000001
 50,0.00000220,0.00000039,0.00000009,-0.00000110,0.00000144,0.00000190,
 0.00000466,0.00000205,0.00000093,-0.00000334,-0.00000172,-0.00000185,0
 .00000346,0.00000280,0.00000086,-0.00000161,-0.00000018,-0.00000124,-0
 .00000492,0.00000207,-0.00000148,-0.00000284,-0.00000036,0.00175342,0.
 00140564,-0.00367413,-0.00035894,-0.00038986,-0.00072593,0.00901492,-0
 .00839094,-0.00525067,-0.00213894,0.00282446,-0.00500014,-0.00023474,-
 0.00040899,0.00048093,-0.13666570,0.11583238,0.06117416,-0.00040545,-0
 .00148995,0.00152907,-0.01029562,0.01941562,0.01446331,-0.00060116,0.0
 0116225,0.00067669,0.13960095,-0.00000563,-0.00000702,0.00001137,0.000
 00254,-0.00000099,0.00000772,-0.00000674,-0.00000970,-0.00001667,0.000
 08040,0.00006423,0.00002509,-0.00001940,0.00000180,-0.00003082,0.00000
 194,-0.00000935,0.00000349,-0.00002815,-0.00002618,-0.00003369,0.00000
 255,0.00005600,-0.00000006,-0.00000325,0.00000405,0.00001447,0.0000004
 1,-0.00000544,0.00000033,-0.00000374,-0.00000007,-0.00000943,0.0000332
 2,0.00002299,-0.00000534,-0.00001113,-0.00000268,-0.00000508,-0.000002
 21,-0.00000230,0.00000241,0.00000733,-0.00000317,0.00000963,-0.0000069
 0,0.00001182,-0.00000721,-0.00000023,-0.00000416,-0.00000775,-0.000001
 56,-0.00000587,0.00000667,-0.00002633,-0.00001677,0.00003968,-0.000025
 11,-0.00003004,0.00000182,0.00000439,0.00000142,-0.00002901,0.00002015
 ,-0.00000773,-0.00001395,-0.00000016,0.00001096,-0.00000460,-0.0000100
 5,0.00000506,-0.00000936,-0.00000122,0.00000372,0.00000487,0.00060756,
 -0.00018518,0.00017428,-0.00015313,-0.00019139,-0.00016687,-0.00002851
 ,-0.00003509,-0.00007639,-0.00000127,-0.00000481,0.00000328,-0.0000025
 4,-0.00000267,0.00000545,0.00000838,-0.00001171,0.00000315,-0.00000321
 ,0.00000351,-0.00000222,0.00000087,0.00000077,0.00000084,-0.00000523,0
 .00000261,-0.00001134,-0.00000477,0.00001242,-0.00000166,0.00000634,0.
 00000339,-0.00000147,-0.00000342,-0.00000052,-0.00000167,0.00000638,-0
 .00000601,0.00000089,-0.00000919,-0.00000377,0.00000337,0.00075769,0.0
 0404731,-0.00419093,-0.00040786,0.00023097,0.00020769,0.00755287,-0.00
 581737,-0.00403954,0.00351287,0.00394987,-0.00063373,-0.00040054,-0.00
 070287,0.00041398,0.11591366,-0.18755245,-0.09615457,-0.00193047,-0.00
 150492,0.00168903,0.00351580,-0.00384030,-0.00516706,0.00030200,-0.000
 14732,-0.00041084,-0.12768635,0.19311217,-0.00001751,-0.00001830,0.000
 01658,0.00000660,-0.00000076,0.00000598,-0.00000975,-0.00001282,-0.000
 02622,0.00015415,0.00004471,0.00001552,-0.00003103,0.00000622,-0.00004
 530,0.00000761,-0.00001030,0.00000267,-0.00002936,-0.00003671,-0.00005
 146,-0.00016757,0.00020145,-0.00013121,-0.00001271,0.00001045,0.000025
 13,0.00000085,-0.00000477,0.00000004,-0.00000340,-0.00000063,-0.000015
 24,0.00003366,0.00002497,-0.00000087,-0.00001323,-0.00000277,-0.000009
 43,-0.00000076,-0.00000222,0.00000148,0.00001544,-0.00001110,0.0000109
 9,-0.00001226,0.00001767,-0.00001059,-0.00000034,-0.00000580,-0.000012
 67,-0.00000256,-0.00000494,0.00000918,-0.00015426,-0.00009695,0.000061
 35,-0.00000042,-0.00002848,0.00001956,0.00002997,0.00001284,-0.0000163
 3,0.00005182,-0.00001014,-0.00003404,-0.00000018,0.00002032,-0.0000169
 7,-0.00001059,0.00001320,0.00000688,-0.00002544,0.00000788,0.00000176,
 0.00142167,-0.00084193,0.00032552,-0.00008971,-0.00022422,-0.00048445,
 -0.00004554,-0.00000935,-0.00000025,-0.00000106,-0.00000410,0.00000308
 ,-0.00000094,-0.00000093,0.00000360,0.00000294,-0.00001215,0.00000077,
 -0.00000090,0.00000327,-0.00000165,0.00000026,0.00000014,-0.00000236,-
 0.00000108,-0.00000391,-0.00000535,-0.00000542,0.00001349,-0.00000084,
 0.00000252,0.00000220,-0.00000094,-0.00000512,-0.00000082,-0.00000126,
 0.00000308,0.00000157,-0.00000153,-0.00000351,-0.00000206,0.00000340,-
 0.00482303,-0.00381841,-0.00218504,-0.00078300,0.00024675,-0.00062702,
 0.01685143,-0.01958456,-0.00816596,-0.00399452,-0.00137585,0.00093710,
 0.00046195,0.00040954,-0.00024422,0.06135536,-0.09619529,-0.10925256,0
 .00119924,0.00212208,0.00002183,-0.00785153,0.01071053,0.00952692,-0.0
 0056250,0.00046210,0.00047664,-0.06453414,0.10662512,0.11014785,-0.000
 02030,0.00000434,-0.00000502,0.00000239,-0.00000027,0.00000227,-0.0000
 0125,-0.00000897,-0.00001176,0.00008125,-0.00000037,0.00004090,0.00000
 390,0.00000685,-0.00000523,0.00000115,0.00000011,0.00000688,-0.0000021
 8,-0.00001573,-0.00001127,0.00005538,-0.00004096,-0.00014285,-0.000008
 22,0.00000133,0.00000783,0.00000089,-0.00000414,-0.00000101,0.00000116
 ,0.00000036,-0.00000285,0.00001098,0.00000859,-0.00000064,-0.00000306,
 -0.00000067,-0.00000140,-0.00000027,-0.00000292,0.00000007,0.00000142,
 0.00000247,-0.00000440,-0.00000128,0.00000163,-0.00000013,0.00000119,-
 0.00000173,-0.00000117,-0.00000131,-0.00000346,0.00000324,-0.00004593,
 -0.00004546,0.00003127,-0.00001041,0.00000181,0.00000880,0.00002266,0.
 00000355,-0.00001604,-0.00000325,0.00000414,0.00000002,0.00000418,0.00
 000249,-0.00000431,-0.00000283,0.00000073,-0.00000474,0.00000440,-0.00
 001017,0.00000303,-0.00017729,-0.00042006,0.00026095,-0.00001930,-0.00
 001793,-0.00006092,-0.00007033,-0.00001613,-0.00006841,-0.00000040,-0.
 00000180,0.00000211,-0.00000039,-0.00000333,0.00000354,-0.00000484,-0.
 00000421,0.00000091,0.00000103,-0.00000117,-0.00000034,0.00000095,0.00
 000105,0.00000068,-0.00000302,-0.00000171,-0.00000862,-0.00000126,0.00
 000384,-0.00000159,0.00000390,-0.00000185,-0.00000164,-0.00000031,0.00
 000088,-0.00000022,0.00000141,0.00000039,0.00000070,-0.00000197,0.0000
 0077,0.00000064,-0.00086173,0.00049789,0.00041612,0.00003629,0.0048650
 3,-0.00036340,-0.00251811,0.00478381,-0.00283879,0.00914614,0.00681070
 ,0.01647181,0.00040001,0.00054627,0.00081280,-0.00394285,-0.01291067,-
 0.02378403,-0.00023463,-0.00054817,-0.00120255,-0.08124915,-0.02566426
 ,-0.08165505,-0.00020383,-0.00204023,0.00080886,-0.00000286,-0.0015490
 1,0.00159481,0.07961186,-0.00001102,-0.00000471,0.00000192,0.00000123,
 -0.00000022,0.00000449,-0.00000307,-0.00000603,-0.00000945,0.00005632,
 0.00000918,0.00000710,0.00000226,0.00000546,-0.00001240,0.00000374,-0.
 00000674,0.00000505,-0.00001265,-0.00001310,-0.00001676,-0.00010083,0.
 00008626,-0.00005941,-0.00000014,0.00000337,0.00000626,-0.00000023,-0.
 00000369,0.00000045,-0.00000304,-0.00000022,-0.00000526,0.00001593,0.0
 0001235,0.00000013,-0.00000521,-0.00000103,-0.00000287,-0.00000015,-0.
 00000171,0.00000074,0.00000209,-0.00000147,0.00000820,-0.00000266,0.00
 000830,-0.00000344,0.00000035,-0.00000209,-0.00000467,-0.00000013,-0.0
 0000409,0.00000390,-0.00001725,-0.00001860,0.00000535,0.00000206,-0.00
 001310,0.00000376,0.00001270,0.00000236,0.00000640,-0.00000194,-0.0000
 0578,-0.00000839,0.00000036,0.00000253,0.00000121,-0.00000478,0.000002
 78,-0.00000489,0.00000125,0.00000132,0.00000239,-0.00038888,-0.0005353
 3,0.00039341,-0.00007081,0.00008402,0.00005364,-0.00014120,-0.00003071
 ,-0.00010440,-0.00000139,-0.00000274,0.00000150,-0.00000051,-0.0000022
 6,0.00000324,0.00000248,-0.00000777,0.00000205,-0.00000113,0.00000035,
 -0.00000100,0.00000055,0.00000096,0.00000030,-0.00000413,-0.00000106,-
 0.00000994,-0.00000171,0.00000736,-0.00000175,0.00000220,-0.00000070,0
 .00000077,-0.00000086,0.00000068,-0.00000003,0.00000207,-0.00000021,0.
 00000079,-0.00000296,0.00000075,0.00000090,0.00059024,-0.00063101,0.00
 041602,0.00554295,0.00099863,-0.00326473,0.00410589,0.00297768,-0.0015
 2851,-0.00933324,-0.00531313,-0.01935801,-0.00032159,-0.00018501,-0.00
 113860,0.00329717,0.00692471,0.01016739,0.00029850,0.00040296,0.000413
 67,-0.02570294,-0.09157895,-0.10447282,-0.00162968,-0.00131346,0.00203
 987,-0.00194262,-0.00140722,0.00136379,0.02576639,0.08956012,-0.000010
 35,0.00000488,0.00000944,0.00000716,-0.00000173,0.00000279,-0.00000618
 ,-0.00001149,-0.00001758,0.00007677,0.00006849,0.00004545,-0.00002738,
 -0.00000099,-0.00002510,-0.00000032,0.00000158,0.00000184,-0.00000679,
 -0.00002427,-0.00003344,-0.00003275,-0.00004700,-0.00018480,-0.0000107
 4,0.00000583,0.00001993,0.00000152,-0.00000543,0.00000025,-0.00000340,
 0.00000047,-0.00001122,0.00002062,0.00001532,0.00000647,-0.00000769,-0
 .00000022,-0.00000717,0.00000136,-0.00000293,0.00000071,0.00000825,-0.
 00000450,0.00001016,-0.00000707,0.00001134,-0.00000536,0.00000183,-0.0
 0000494,-0.00000868,-0.00000324,-0.00000394,0.00000581,-0.00007679,-0.
 00004670,0.00005751,-0.00001975,-0.00001982,0.00001005,0.00001825,0.00
 000339,-0.00003600,0.00001121,0.00000348,0.00000212,0.00000642,0.00001
 387,-0.00001429,-0.00000665,0.00000318,-0.00000585,-0.00000265,-0.0000
 0788,0.00000339,0.00031680,0.00045732,-0.00012135,0.00002905,-0.000040
 03,-0.00003771,0.00004881,0.00001364,0.00004260,-0.00000423,-0.0000014
 0,0.00000417,-0.00000146,-0.00000393,0.00000358,0.00000041,-0.00000991
 ,-0.00000060,0.00000150,-0.00000216,-0.00000145,0.00000041,0.00000202,
 -0.00000154,-0.00000400,-0.00000551,-0.00000653,-0.00000170,0.00001031
 ,0.00000168,0.00000417,-0.00000363,-0.00000375,-0.00000233,0.00000202,
 -0.00000041,0.00000343,0.00000576,-0.00000253,-0.00000075,0.00000242,0
 .00000168,0.00025890,0.00039612,0.00027641,0.00064011,-0.00403504,0.00
 224703,-0.00375292,-0.00062757,0.00246881,-0.00589668,-0.00355920,-0.0
 0869639,-0.00040504,-0.00033793,-0.00049528,-0.00166495,-0.00582616,-0
 .00774555,-0.00010702,-0.00044666,-0.00038978,-0.08150604,-0.10445333,
 -0.26051907,0.00135419,0.00164354,-0.00030205,0.00103761,0.00177665,-0
 .00028007,0.08972010,0.11509264,0.27373163\\-0.00000125,0.00000597,-0.
 00000125,-0.00000271,0.00000022,-0.00000031,0.00000041,0.00000059,0.00
 000142,-0.00000205,-0.00000073,-0.00000074,-0.00000037,-0.00000147,0.0
 0000057,-0.00000028,0.00000012,0.00000005,0.00000141,-0.00000122,0.000
 00091,0.00000351,0.00000291,-0.00000075,-0.00000012,0.00000100,-0.0000
 0120,-0.00000069,0.00000114,-0.00000142,-0.00000122,0.00000052,-0.0000
 0072,-0.00000281,-0.00000254,-0.00000018,0.00000026,0.00000055,0.00000
 077,-0.00000116,0.00000039,-0.00000047,-0.00000086,-0.00000016,-0.0000
 0151,-0.00000009,0.00000084,-0.00000113,-0.00000124,0.00000056,-0.0000
 0050,-0.00000082,-0.00000059,-0.00000068,-0.00000200,-0.00000051,0.000
 00009,-0.00000140,-0.00000011,0.00000012,0.00000186,0.00000129,0.00000
 006,-0.00000187,0.00000172,-0.00000076,-0.00000083,-0.00000054,0.00000
 079,0.00000141,0.00000194,0.00000185,0.00000068,-0.00000084,0.00000076
 ,0.00000164,-0.00000349,0.00000245,-0.00000137,0.00000008,-0.00000015,
 0.00000041,0.00000022,-0.00000104,-0.00000007,0.00000148,-0.00000131,0
 .00000046,0.00000006,0.00000058,-0.00000052,-0.00000005,0.00000114,0.0
 0000024,0.00000012,0.00000152,-0.00000078,0.00000067,0.00000038,0.0000
 0065,-0.00000050,-0.00000086,0.00000055,-0.00000019,-0.00000045,0.0000
 0008,0.00000017,-0.00000027,-0.00000042,0.00000025,0.00000089,0.000000
 87,-0.00000052,0.00000026,0.00000022,-0.00000049,0.00000098,0.00000405
 ,-0.00000427,0.00000072,-0.00000168,0.00000099,-0.00000319,0.00000037,
 0.00000263,0.00000263,-0.00000009,0.00000134,0.00000257,0.00000071,-0.
 00000110,-0.00000055,-0.00000148,-0.00000146,-0.00000238,0.00000016,-0
 .00000071,0.00000095,0.00000425,-0.00000353,-0.00000095,0.00000138,-0.
 00000140,-0.00000095,0.00000114,-0.00000077,0.00000111,0.00000147,-0.0
 0000060,0.00000016\\\@
 The archive entry for this job was punched.


 FIREWORKS ENDED
 AND SPECTATORS GONE AWAY....
 AH, HOW VAST AND DARK
                     SHIKI
 Job cpu time:       0 days  4 hours 59 minutes 12.1 seconds.
 Elapsed time:       0 days  0 hours 37 minutes 25.3 seconds.
 File lengths (MBytes):  RWF=   1066 Int=      0 D2E=      0 Chk=     27 Scr=      1
 Normal termination of Gaussian 16 at Sun Oct 24 09:53:27 2021.
