 Entering Gaussian System, Link 0=/home/rong/g16/g16
 Input=/home/rong/g16/learning/CH2CH2NCH2PhCH2CH3.gjf
 Output=/home/rong/g16/learning/CH2CH2NCH2PhCH2CH3.log
 Initial command:
 /home/rong/g16/l1.exe "/tmp/Gau-309655.inp" -scrdir="/tmp/"
 Entering Link 1 = /home/rong/g16/l1.exe PID=    309657.
  
 Copyright (c) 1988-2019, Gaussian, Inc.  All Rights Reserved.
  
 This is part of the Gaussian(R) 16 program.  It is based on
 the Gaussian(R) 09 system (copyright 2009, Gaussian, Inc.),
 the Gaussian(R) 03 system (copyright 2003, Gaussian, Inc.),
 the Gaussian(R) 98 system (copyright 1998, Gaussian, Inc.),
 the Gaussian(R) 94 system (copyright 1995, Gaussian, Inc.),
 the Gaussian 92(TM) system (copyright 1992, Gaussian, Inc.),
 the Gaussian 90(TM) system (copyright 1990, Gaussian, Inc.),
 the Gaussian 88(TM) system (copyright 1988, Gaussian, Inc.),
 the Gaussian 86(TM) system (copyright 1986, Carnegie Mellon
 University), and the Gaussian 82(TM) system (copyright 1983,
 Carnegie Mellon University). Gaussian is a federally registered
 trademark of Gaussian, Inc.
  
 This software contains proprietary and confidential information,
 including trade secrets, belonging to Gaussian, Inc.
  
 This software is provided under written license and may be
 used, copied, transmitted, or stored only in accord with that
 written license.
  
 The following legend is applicable only to US Government
 contracts under FAR:
  
                    RESTRICTED RIGHTS LEGEND
  
 Use, reproduction and disclosure by the US Government is
 subject to restrictions as set forth in subparagraphs (a)
 and (c) of the Commercial Computer Software - Restricted
 Rights clause in FAR 52.227-19.
  
 Gaussian, Inc.
 340 Quinnipiac St., Bldg. 40, Wallingford CT 06492
  
  
 ---------------------------------------------------------------
 Warning -- This program may not be used in any manner that
 competes with the business of Gaussian, Inc. or will provide
 assistance to any competitor of Gaussian, Inc.  The licensee
 of this program is prohibited from giving any competitor of
 Gaussian, Inc. access to this program.  By using this program,
 the user acknowledges that Gaussian, Inc. is engaged in the
 business of creating and licensing software in the field of
 computational chemistry and represents and warrants to the
 licensee that it is not a competitor of Gaussian, Inc. and that
 it will not use this program in any manner prohibited above.
 ---------------------------------------------------------------
  

 Cite this work as:
 Gaussian 16, Revision C.01,
 M. J. Frisch, G. W. Trucks, H. B. Schlegel, G. E. Scuseria, 
 M. A. Robb, J. R. Cheeseman, G. Scalmani, V. Barone, 
 G. A. Petersson, H. Nakatsuji, X. Li, M. Caricato, A. V. Marenich, 
 J. Bloino, B. G. Janesko, R. Gomperts, B. Mennucci, H. P. Hratchian, 
 J. V. Ortiz, A. F. Izmaylov, J. L. Sonnenberg, D. Williams-Young, 
 F. Ding, F. Lipparini, F. Egidi, J. Goings, B. Peng, A. Petrone, 
 T. Henderson, D. Ranasinghe, V. G. Zakrzewski, J. Gao, N. Rega, 
 G. Zheng, W. Liang, M. Hada, M. Ehara, K. Toyota, R. Fukuda, 
 J. Hasegawa, M. Ishida, T. Nakajima, Y. Honda, O. Kitao, H. Nakai, 
 T. Vreven, K. Throssell, J. A. Montgomery, Jr., J. E. Peralta, 
 F. Ogliaro, M. J. Bearpark, J. J. Heyd, E. N. Brothers, K. N. Kudin, 
 V. N. Staroverov, T. A. Keith, R. Kobayashi, J. Normand, 
 K. Raghavachari, A. P. Rendell, J. C. Burant, S. S. Iyengar, 
 J. Tomasi, M. Cossi, J. M. Millam, M. Klene, C. Adamo, R. Cammi, 
 J. W. Ochterski, R. L. Martin, K. Morokuma, O. Farkas, 
 J. B. Foresman, and D. J. Fox, Gaussian, Inc., Wallingford CT, 2019.
 
 ******************************************
 Gaussian 16:  ES64L-G16RevC.01  3-Jul-2019
                25-Oct-2021 
 ******************************************
 %mem=15GB
 %chk=CH2CH2NCH2PhCH2CH3.chk
 %nprocshared=8
 Will use up to    8 processors via shared memory.
 ----------------------------------------------------
 # opt freq b3lyp/6-31g(d) scrf=(smd,solvent=toluene)
 ----------------------------------------------------
 1/18=20,19=15,26=3,38=1/1,3;
 2/9=110,12=2,17=6,18=5,40=1/2;
 3/5=1,6=6,7=1,11=2,25=1,30=1,70=32201,71=1,72=13,74=-5/1,2,3;
 4//1;
 5/5=2,38=5,53=13/2;
 6/7=2,8=2,9=2,10=2,28=1/1;
 7//1,2,3,16;
 1/18=20,19=15,26=3/3(2);
 2/9=110/2;
 99//99;
 2/9=110/2;
 3/5=1,6=6,7=1,11=2,25=1,30=1,70=32205,71=1,72=13,74=-5/1,2,3;
 4/5=5,16=3,69=1/1;
 5/5=2,38=5,53=13/2;
 7//1,2,3,16;
 1/18=20,19=15,26=3/3(-5);
 2/9=110/2;
 6/7=2,8=2,9=2,10=2,19=2,28=1/1;
 99/9=1/99;
 ------------------
 CH2CH2NCH2PhCH2CH3
 ------------------
 Symbolic Z-matrix:
 Charge =  0 Multiplicity = 1
 C                    -3.52856  -2.50066   1.19575 
 H                    -3.6284   -3.54897   1.00605 
 H                    -4.25403  -1.96355   0.62121 
 C                    -2.11434  -2.0393    0.79733 
 H                    -1.38888  -2.57627   1.37201 
 H                    -1.95698  -2.23011  -0.24369 
 C                    -1.97074  -0.53046   1.07011 
 H                    -0.98813  -0.20991   0.79332 
 H                    -2.69619   0.00651   0.4954 
 N                    -2.18698  -0.26831   2.50029 
 N                    -3.74465  -2.23876   2.626 
 C                    -0.9014   -0.3336    3.21016 
 H                    -0.65942  -1.35524   3.41657 
 H                    -0.13518   0.09833   2.60085 
 C                    -2.77317   1.069     2.67018 
 H                    -2.08658   1.80748   2.3122 
 H                    -3.68575   1.13157   2.11504 
 C                    -3.062     1.3171    4.16236 
 H                    -2.2104    1.77674   4.61888 
 H                    -3.91015   1.96223   4.25902 
 H                    -3.26613   0.38471   4.64597 
 C                    -3.44934  -3.45504   3.39695 
 H                    -3.55363  -3.24916   4.44177 
 H                    -2.44755  -3.7715    3.19404 
 C                    -5.14414  -1.84665   2.84637 
 H                    -5.78531  -2.67474   2.62715 
 H                    -5.38976  -1.0259    2.20533 
 C                    -5.33396  -1.4253    4.3154 
 H                    -5.73131  -0.43253   4.3532 
 H                    -6.0124   -2.09952   4.79502 
 H                    -4.39005  -1.45107   4.81866 
 C                    -1.00563   0.44675   4.53371 
 C                    -1.56372  -0.16016   5.65918 
 C                    -0.54203   1.76021   4.60739 
 C                    -1.65876   0.54654   6.85783 
 H                    -1.92983  -1.19542   5.60055 
 C                    -0.63612   2.46693   5.8066 
 H                    -0.10198   2.23865   3.7205 
 C                    -1.19449   1.86039   6.93171 
 H                    -2.09921   0.06844   7.7448 
 H                    -0.27013   3.50239   5.86451 
 H                    -1.26948   2.41738   7.87693 
 C                    -4.4317   -4.57008   2.99291 
 C                    -5.50974  -4.88377   3.82109 
 C                    -4.24379  -5.26633   1.79897 
 C                    -6.39925  -5.89396   3.45567 
 H                    -5.65717  -4.3352    4.76267 
 C                    -5.13404  -6.27618   1.43282 
 H                    -3.39428  -5.0191    1.14603 
 C                    -6.21158  -6.59018   2.26098 
 H                    -7.24864  -6.1417    4.10871 
 H                    -4.98586  -6.82469   0.49119 
 H                    -6.91308  -7.38659   1.97304 
 

 GradGradGradGradGradGradGradGradGradGradGradGradGradGradGradGradGradGrad
 Berny optimization.
 Initialization pass.
                           ----------------------------
                           !    Initial Parameters    !
                           ! (Angstroms and Degrees)  !
 --------------------------                            --------------------------
 ! Name  Definition              Value          Derivative Info.                !
 --------------------------------------------------------------------------------
 ! R1    R(1,2)                  1.07           estimate D2E/DX2                !
 ! R2    R(1,3)                  1.07           estimate D2E/DX2                !
 ! R3    R(1,4)                  1.54           estimate D2E/DX2                !
 ! R4    R(1,11)                 1.47           estimate D2E/DX2                !
 ! R5    R(4,5)                  1.07           estimate D2E/DX2                !
 ! R6    R(4,6)                  1.07           estimate D2E/DX2                !
 ! R7    R(4,7)                  1.54           estimate D2E/DX2                !
 ! R8    R(7,8)                  1.07           estimate D2E/DX2                !
 ! R9    R(7,9)                  1.07           estimate D2E/DX2                !
 ! R10   R(7,10)                 1.47           estimate D2E/DX2                !
 ! R11   R(10,12)                1.47           estimate D2E/DX2                !
 ! R12   R(10,15)                1.47           estimate D2E/DX2                !
 ! R13   R(11,22)                1.47           estimate D2E/DX2                !
 ! R14   R(11,25)                1.47           estimate D2E/DX2                !
 ! R15   R(12,13)                1.07           estimate D2E/DX2                !
 ! R16   R(12,14)                1.07           estimate D2E/DX2                !
 ! R17   R(12,32)                1.54           estimate D2E/DX2                !
 ! R18   R(15,16)                1.07           estimate D2E/DX2                !
 ! R19   R(15,17)                1.07           estimate D2E/DX2                !
 ! R20   R(15,18)                1.54           estimate D2E/DX2                !
 ! R21   R(18,19)                1.07           estimate D2E/DX2                !
 ! R22   R(18,20)                1.07           estimate D2E/DX2                !
 ! R23   R(18,21)                1.07           estimate D2E/DX2                !
 ! R24   R(22,23)                1.07           estimate D2E/DX2                !
 ! R25   R(22,24)                1.07           estimate D2E/DX2                !
 ! R26   R(22,43)                1.54           estimate D2E/DX2                !
 ! R27   R(25,26)                1.07           estimate D2E/DX2                !
 ! R28   R(25,27)                1.07           estimate D2E/DX2                !
 ! R29   R(25,28)                1.54           estimate D2E/DX2                !
 ! R30   R(28,29)                1.07           estimate D2E/DX2                !
 ! R31   R(28,30)                1.07           estimate D2E/DX2                !
 ! R32   R(28,31)                1.07           estimate D2E/DX2                !
 ! R33   R(32,33)                1.3952         estimate D2E/DX2                !
 ! R34   R(32,34)                1.3948         estimate D2E/DX2                !
 ! R35   R(33,35)                1.3947         estimate D2E/DX2                !
 ! R36   R(33,36)                1.0997         estimate D2E/DX2                !
 ! R37   R(34,37)                1.3951         estimate D2E/DX2                !
 ! R38   R(34,38)                1.0996         estimate D2E/DX2                !
 ! R39   R(35,39)                1.3954         estimate D2E/DX2                !
 ! R40   R(35,40)                1.0997         estimate D2E/DX2                !
 ! R41   R(37,39)                1.3948         estimate D2E/DX2                !
 ! R42   R(37,41)                1.0998         estimate D2E/DX2                !
 ! R43   R(39,42)                1.0997         estimate D2E/DX2                !
 ! R44   R(43,44)                1.3952         estimate D2E/DX2                !
 ! R45   R(43,45)                1.3948         estimate D2E/DX2                !
 ! R46   R(44,46)                1.3947         estimate D2E/DX2                !
 ! R47   R(44,47)                1.0997         estimate D2E/DX2                !
 ! R48   R(45,48)                1.3951         estimate D2E/DX2                !
 ! R49   R(45,49)                1.0996         estimate D2E/DX2                !
 ! R50   R(46,50)                1.3954         estimate D2E/DX2                !
 ! R51   R(46,51)                1.0997         estimate D2E/DX2                !
 ! R52   R(48,50)                1.3948         estimate D2E/DX2                !
 ! R53   R(48,52)                1.0998         estimate D2E/DX2                !
 ! R54   R(50,53)                1.0997         estimate D2E/DX2                !
 ! A1    A(2,1,3)              109.4712         estimate D2E/DX2                !
 ! A2    A(2,1,4)              109.4713         estimate D2E/DX2                !
 ! A3    A(2,1,11)             109.4712         estimate D2E/DX2                !
 ! A4    A(3,1,4)              109.4712         estimate D2E/DX2                !
 ! A5    A(3,1,11)             109.4712         estimate D2E/DX2                !
 ! A6    A(4,1,11)             109.4712         estimate D2E/DX2                !
 ! A7    A(1,4,5)              109.4712         estimate D2E/DX2                !
 ! A8    A(1,4,6)              109.4712         estimate D2E/DX2                !
 ! A9    A(1,4,7)              109.4712         estimate D2E/DX2                !
 ! A10   A(5,4,6)              109.4713         estimate D2E/DX2                !
 ! A11   A(5,4,7)              109.4712         estimate D2E/DX2                !
 ! A12   A(6,4,7)              109.4712         estimate D2E/DX2                !
 ! A13   A(4,7,8)              109.4712         estimate D2E/DX2                !
 ! A14   A(4,7,9)              109.4712         estimate D2E/DX2                !
 ! A15   A(4,7,10)             109.4712         estimate D2E/DX2                !
 ! A16   A(8,7,9)              109.4712         estimate D2E/DX2                !
 ! A17   A(8,7,10)             109.4713         estimate D2E/DX2                !
 ! A18   A(9,7,10)             109.4712         estimate D2E/DX2                !
 ! A19   A(7,10,12)            109.4668         estimate D2E/DX2                !
 ! A20   A(7,10,15)            109.4713         estimate D2E/DX2                !
 ! A21   A(12,10,15)           109.4713         estimate D2E/DX2                !
 ! A22   A(1,11,22)            109.4712         estimate D2E/DX2                !
 ! A23   A(1,11,25)            109.4712         estimate D2E/DX2                !
 ! A24   A(22,11,25)           109.4713         estimate D2E/DX2                !
 ! A25   A(10,12,13)           109.4712         estimate D2E/DX2                !
 ! A26   A(10,12,14)           109.4712         estimate D2E/DX2                !
 ! A27   A(10,12,32)           109.4712         estimate D2E/DX2                !
 ! A28   A(13,12,14)           109.4713         estimate D2E/DX2                !
 ! A29   A(13,12,32)           109.4712         estimate D2E/DX2                !
 ! A30   A(14,12,32)           109.4712         estimate D2E/DX2                !
 ! A31   A(10,15,16)           109.4712         estimate D2E/DX2                !
 ! A32   A(10,15,17)           109.4712         estimate D2E/DX2                !
 ! A33   A(10,15,18)           109.4712         estimate D2E/DX2                !
 ! A34   A(16,15,17)           109.4712         estimate D2E/DX2                !
 ! A35   A(16,15,18)           109.4713         estimate D2E/DX2                !
 ! A36   A(17,15,18)           109.4712         estimate D2E/DX2                !
 ! A37   A(15,18,19)           109.4712         estimate D2E/DX2                !
 ! A38   A(15,18,20)           109.4712         estimate D2E/DX2                !
 ! A39   A(15,18,21)           109.4712         estimate D2E/DX2                !
 ! A40   A(19,18,20)           109.4713         estimate D2E/DX2                !
 ! A41   A(19,18,21)           109.4712         estimate D2E/DX2                !
 ! A42   A(20,18,21)           109.4712         estimate D2E/DX2                !
 ! A43   A(11,22,23)           109.4712         estimate D2E/DX2                !
 ! A44   A(11,22,24)           109.4712         estimate D2E/DX2                !
 ! A45   A(11,22,43)           109.4712         estimate D2E/DX2                !
 ! A46   A(23,22,24)           109.4712         estimate D2E/DX2                !
 ! A47   A(23,22,43)           109.4712         estimate D2E/DX2                !
 ! A48   A(24,22,43)           109.4712         estimate D2E/DX2                !
 ! A49   A(11,25,26)           109.4712         estimate D2E/DX2                !
 ! A50   A(11,25,27)           109.4712         estimate D2E/DX2                !
 ! A51   A(11,25,28)           109.4712         estimate D2E/DX2                !
 ! A52   A(26,25,27)           109.4712         estimate D2E/DX2                !
 ! A53   A(26,25,28)           109.4713         estimate D2E/DX2                !
 ! A54   A(27,25,28)           109.4712         estimate D2E/DX2                !
 ! A55   A(25,28,29)           109.4712         estimate D2E/DX2                !
 ! A56   A(25,28,30)           109.4712         estimate D2E/DX2                !
 ! A57   A(25,28,31)           109.4712         estimate D2E/DX2                !
 ! A58   A(29,28,30)           109.4713         estimate D2E/DX2                !
 ! A59   A(29,28,31)           109.4712         estimate D2E/DX2                !
 ! A60   A(30,28,31)           109.4712         estimate D2E/DX2                !
 ! A61   A(12,32,33)           119.9972         estimate D2E/DX2                !
 ! A62   A(12,32,34)           120.0043         estimate D2E/DX2                !
 ! A63   A(33,32,34)           119.9985         estimate D2E/DX2                !
 ! A64   A(32,33,35)           120.0086         estimate D2E/DX2                !
 ! A65   A(32,33,36)           119.9808         estimate D2E/DX2                !
 ! A66   A(35,33,36)           120.0105         estimate D2E/DX2                !
 ! A67   A(32,34,37)           120.0            estimate D2E/DX2                !
 ! A68   A(32,34,38)           120.008          estimate D2E/DX2                !
 ! A69   A(37,34,38)           119.992          estimate D2E/DX2                !
 ! A70   A(33,35,39)           119.9942         estimate D2E/DX2                !
 ! A71   A(33,35,40)           120.0128         estimate D2E/DX2                !
 ! A72   A(39,35,40)           119.993          estimate D2E/DX2                !
 ! A73   A(34,37,39)           120.0047         estimate D2E/DX2                !
 ! A74   A(34,37,41)           119.984          estimate D2E/DX2                !
 ! A75   A(39,37,41)           120.0113         estimate D2E/DX2                !
 ! A76   A(35,39,37)           119.994          estimate D2E/DX2                !
 ! A77   A(35,39,42)           119.9811         estimate D2E/DX2                !
 ! A78   A(37,39,42)           120.0249         estimate D2E/DX2                !
 ! A79   A(22,43,44)           119.9972         estimate D2E/DX2                !
 ! A80   A(22,43,45)           120.0043         estimate D2E/DX2                !
 ! A81   A(44,43,45)           119.9985         estimate D2E/DX2                !
 ! A82   A(43,44,46)           120.0086         estimate D2E/DX2                !
 ! A83   A(43,44,47)           119.9808         estimate D2E/DX2                !
 ! A84   A(46,44,47)           120.0105         estimate D2E/DX2                !
 ! A85   A(43,45,48)           120.0            estimate D2E/DX2                !
 ! A86   A(43,45,49)           120.008          estimate D2E/DX2                !
 ! A87   A(48,45,49)           119.992          estimate D2E/DX2                !
 ! A88   A(44,46,50)           119.9942         estimate D2E/DX2                !
 ! A89   A(44,46,51)           120.0128         estimate D2E/DX2                !
 ! A90   A(50,46,51)           119.993          estimate D2E/DX2                !
 ! A91   A(45,48,50)           120.0047         estimate D2E/DX2                !
 ! A92   A(45,48,52)           119.984          estimate D2E/DX2                !
 ! A93   A(50,48,52)           120.0113         estimate D2E/DX2                !
 ! A94   A(46,50,48)           119.994          estimate D2E/DX2                !
 ! A95   A(46,50,53)           119.9811         estimate D2E/DX2                !
 ! A96   A(48,50,53)           120.0249         estimate D2E/DX2                !
 ! D1    D(2,1,4,5)            -60.0111         estimate D2E/DX2                !
 ! D2    D(2,1,4,6)             59.9889         estimate D2E/DX2                !
 ! D3    D(2,1,4,7)            179.9889         estimate D2E/DX2                !
 ! D4    D(3,1,4,5)            179.9889         estimate D2E/DX2                !
 ! D5    D(3,1,4,6)            -60.0111         estimate D2E/DX2                !
 ! D6    D(3,1,4,7)             59.9889         estimate D2E/DX2                !
 ! D7    D(11,1,4,5)            59.9889         estimate D2E/DX2                !
 ! D8    D(11,1,4,6)           179.9889         estimate D2E/DX2                !
 ! D9    D(11,1,4,7)           -60.0111         estimate D2E/DX2                !
 ! D10   D(2,1,11,22)           24.3204         estimate D2E/DX2                !
 ! D11   D(2,1,11,25)          -95.6796         estimate D2E/DX2                !
 ! D12   D(3,1,11,22)          144.3204         estimate D2E/DX2                !
 ! D13   D(3,1,11,25)           24.3204         estimate D2E/DX2                !
 ! D14   D(4,1,11,22)          -95.6796         estimate D2E/DX2                !
 ! D15   D(4,1,11,25)          144.3203         estimate D2E/DX2                !
 ! D16   D(1,4,7,8)            179.9979         estimate D2E/DX2                !
 ! D17   D(1,4,7,9)            -60.0021         estimate D2E/DX2                !
 ! D18   D(1,4,7,10)            59.9979         estimate D2E/DX2                !
 ! D19   D(5,4,7,8)             59.9979         estimate D2E/DX2                !
 ! D20   D(5,4,7,9)            179.9979         estimate D2E/DX2                !
 ! D21   D(5,4,7,10)           -60.0021         estimate D2E/DX2                !
 ! D22   D(6,4,7,8)            -60.0021         estimate D2E/DX2                !
 ! D23   D(6,4,7,9)             59.9979         estimate D2E/DX2                !
 ! D24   D(6,4,7,10)           179.9979         estimate D2E/DX2                !
 ! D25   D(4,7,10,12)           90.8047         estimate D2E/DX2                !
 ! D26   D(4,7,10,15)         -149.1979         estimate D2E/DX2                !
 ! D27   D(8,7,10,12)          -29.1953         estimate D2E/DX2                !
 ! D28   D(8,7,10,15)           90.8021         estimate D2E/DX2                !
 ! D29   D(9,7,10,12)         -149.1953         estimate D2E/DX2                !
 ! D30   D(9,7,10,15)          -29.1979         estimate D2E/DX2                !
 ! D31   D(7,10,12,13)         -81.7895         estimate D2E/DX2                !
 ! D32   D(7,10,12,14)          38.2105         estimate D2E/DX2                !
 ! D33   D(7,10,12,32)         158.2105         estimate D2E/DX2                !
 ! D34   D(15,10,12,13)        158.2131         estimate D2E/DX2                !
 ! D35   D(15,10,12,14)        -81.7868         estimate D2E/DX2                !
 ! D36   D(15,10,12,32)         38.2132         estimate D2E/DX2                !
 ! D37   D(7,10,15,16)         -62.6833         estimate D2E/DX2                !
 ! D38   D(7,10,15,17)          57.3167         estimate D2E/DX2                !
 ! D39   D(7,10,15,18)         177.3167         estimate D2E/DX2                !
 ! D40   D(12,10,15,16)         57.3113         estimate D2E/DX2                !
 ! D41   D(12,10,15,17)        177.3113         estimate D2E/DX2                !
 ! D42   D(12,10,15,18)        -62.6887         estimate D2E/DX2                !
 ! D43   D(1,11,22,23)         176.8602         estimate D2E/DX2                !
 ! D44   D(1,11,22,24)          56.8602         estimate D2E/DX2                !
 ! D45   D(1,11,22,43)         -63.1398         estimate D2E/DX2                !
 ! D46   D(25,11,22,23)        -63.1399         estimate D2E/DX2                !
 ! D47   D(25,11,22,24)        176.8602         estimate D2E/DX2                !
 ! D48   D(25,11,22,43)         56.8602         estimate D2E/DX2                !
 ! D49   D(1,11,25,26)          66.0909         estimate D2E/DX2                !
 ! D50   D(1,11,25,27)         -53.909          estimate D2E/DX2                !
 ! D51   D(1,11,25,28)        -173.909          estimate D2E/DX2                !
 ! D52   D(22,11,25,26)        -53.909          estimate D2E/DX2                !
 ! D53   D(22,11,25,27)       -173.909          estimate D2E/DX2                !
 ! D54   D(22,11,25,28)         66.091          estimate D2E/DX2                !
 ! D55   D(10,12,32,33)         82.4269         estimate D2E/DX2                !
 ! D56   D(10,12,32,34)        -97.5783         estimate D2E/DX2                !
 ! D57   D(13,12,32,33)        -37.5731         estimate D2E/DX2                !
 ! D58   D(13,12,32,34)        142.4217         estimate D2E/DX2                !
 ! D59   D(14,12,32,33)       -157.5731         estimate D2E/DX2                !
 ! D60   D(14,12,32,34)         22.4216         estimate D2E/DX2                !
 ! D61   D(10,15,18,19)         90.7489         estimate D2E/DX2                !
 ! D62   D(10,15,18,20)       -149.2511         estimate D2E/DX2                !
 ! D63   D(10,15,18,21)        -29.2511         estimate D2E/DX2                !
 ! D64   D(16,15,18,19)        -29.2511         estimate D2E/DX2                !
 ! D65   D(16,15,18,20)         90.7489         estimate D2E/DX2                !
 ! D66   D(16,15,18,21)       -149.2511         estimate D2E/DX2                !
 ! D67   D(17,15,18,19)       -149.2511         estimate D2E/DX2                !
 ! D68   D(17,15,18,20)        -29.2511         estimate D2E/DX2                !
 ! D69   D(17,15,18,21)         90.7489         estimate D2E/DX2                !
 ! D70   D(11,22,43,44)       -102.4103         estimate D2E/DX2                !
 ! D71   D(11,22,43,45)         77.5845         estimate D2E/DX2                !
 ! D72   D(23,22,43,44)         17.5897         estimate D2E/DX2                !
 ! D73   D(23,22,43,45)       -162.4156         estimate D2E/DX2                !
 ! D74   D(24,22,43,44)        137.5897         estimate D2E/DX2                !
 ! D75   D(24,22,43,45)        -42.4155         estimate D2E/DX2                !
 ! D76   D(11,25,28,29)        123.8572         estimate D2E/DX2                !
 ! D77   D(11,25,28,30)       -116.1427         estimate D2E/DX2                !
 ! D78   D(11,25,28,31)          3.8573         estimate D2E/DX2                !
 ! D79   D(26,25,28,29)       -116.1428         estimate D2E/DX2                !
 ! D80   D(26,25,28,30)          3.8572         estimate D2E/DX2                !
 ! D81   D(26,25,28,31)        123.8572         estimate D2E/DX2                !
 ! D82   D(27,25,28,29)          3.8572         estimate D2E/DX2                !
 ! D83   D(27,25,28,30)        123.8573         estimate D2E/DX2                !
 ! D84   D(27,25,28,31)       -116.1427         estimate D2E/DX2                !
 ! D85   D(12,32,33,35)       -179.9729         estimate D2E/DX2                !
 ! D86   D(12,32,33,36)         -0.052          estimate D2E/DX2                !
 ! D87   D(34,32,33,35)          0.0323         estimate D2E/DX2                !
 ! D88   D(34,32,33,36)        179.9532         estimate D2E/DX2                !
 ! D89   D(12,32,34,37)       -179.9798         estimate D2E/DX2                !
 ! D90   D(12,32,34,38)         -0.0055         estimate D2E/DX2                !
 ! D91   D(33,32,34,37)          0.0149         estimate D2E/DX2                !
 ! D92   D(33,32,34,38)        179.9892         estimate D2E/DX2                !
 ! D93   D(32,33,35,39)         -0.0568         estimate D2E/DX2                !
 ! D94   D(32,33,35,40)        179.9619         estimate D2E/DX2                !
 ! D95   D(36,33,35,39)       -179.9777         estimate D2E/DX2                !
 ! D96   D(36,33,35,40)          0.041          estimate D2E/DX2                !
 ! D97   D(32,34,37,39)         -0.0376         estimate D2E/DX2                !
 ! D98   D(32,34,37,41)        179.975          estimate D2E/DX2                !
 ! D99   D(38,34,37,39)        179.9881         estimate D2E/DX2                !
 ! D100  D(38,34,37,41)          0.0007         estimate D2E/DX2                !
 ! D101  D(33,35,39,37)          0.0341         estimate D2E/DX2                !
 ! D102  D(33,35,39,42)       -179.9964         estimate D2E/DX2                !
 ! D103  D(40,35,39,37)       -179.9846         estimate D2E/DX2                !
 ! D104  D(40,35,39,42)         -0.0151         estimate D2E/DX2                !
 ! D105  D(34,37,39,35)          0.0131         estimate D2E/DX2                !
 ! D106  D(34,37,39,42)       -179.9563         estimate D2E/DX2                !
 ! D107  D(41,37,39,35)       -179.9995         estimate D2E/DX2                !
 ! D108  D(41,37,39,42)          0.0311         estimate D2E/DX2                !
 ! D109  D(22,43,44,46)       -179.9729         estimate D2E/DX2                !
 ! D110  D(22,43,44,47)         -0.052          estimate D2E/DX2                !
 ! D111  D(45,43,44,46)          0.0323         estimate D2E/DX2                !
 ! D112  D(45,43,44,47)        179.9532         estimate D2E/DX2                !
 ! D113  D(22,43,45,48)       -179.9798         estimate D2E/DX2                !
 ! D114  D(22,43,45,49)         -0.0056         estimate D2E/DX2                !
 ! D115  D(44,43,45,48)          0.0149         estimate D2E/DX2                !
 ! D116  D(44,43,45,49)        179.9892         estimate D2E/DX2                !
 ! D117  D(43,44,46,50)         -0.0568         estimate D2E/DX2                !
 ! D118  D(43,44,46,51)        179.9619         estimate D2E/DX2                !
 ! D119  D(47,44,46,50)       -179.9777         estimate D2E/DX2                !
 ! D120  D(47,44,46,51)          0.041          estimate D2E/DX2                !
 ! D121  D(43,45,48,50)         -0.0376         estimate D2E/DX2                !
 ! D122  D(43,45,48,52)        179.975          estimate D2E/DX2                !
 ! D123  D(49,45,48,50)        179.9881         estimate D2E/DX2                !
 ! D124  D(49,45,48,52)          0.0007         estimate D2E/DX2                !
 ! D125  D(44,46,50,48)          0.0341         estimate D2E/DX2                !
 ! D126  D(44,46,50,53)       -179.9964         estimate D2E/DX2                !
 ! D127  D(51,46,50,48)       -179.9846         estimate D2E/DX2                !
 ! D128  D(51,46,50,53)         -0.0151         estimate D2E/DX2                !
 ! D129  D(45,48,50,46)          0.0131         estimate D2E/DX2                !
 ! D130  D(45,48,50,53)       -179.9563         estimate D2E/DX2                !
 ! D131  D(52,48,50,46)       -179.9995         estimate D2E/DX2                !
 ! D132  D(52,48,50,53)          0.0311         estimate D2E/DX2                !
 --------------------------------------------------------------------------------
 Trust Radius=3.00D-01 FncErr=1.00D-07 GrdErr=1.00D-06 EigMax=2.50D+02 EigMin=1.00D-04
 Number of steps in this run=    292 maximum allowed number of steps=    318.
 GradGradGradGradGradGradGradGradGradGradGradGradGradGradGradGradGradGrad

 Stoichiometry    C21H30N2
 Framework group  C1[X(C21H30N2)]
 Deg. of freedom   153
 Full point group                 C1      NOp   1
 Largest Abelian subgroup         C1      NOp   1
 Largest concise Abelian subgroup C1      NOp   1
                         Standard orientation:                         
 ---------------------------------------------------------------------
 Center     Atomic      Atomic             Coordinates (Angstroms)
 Number     Number       Type             X           Y           Z
 ---------------------------------------------------------------------
      1          6           0       -1.591810    1.751274    0.311659
      2          1           0       -2.552502    1.739519   -0.159333
      3          1           0       -1.695914    2.074955    1.326200
      4          6           0       -0.661858    2.719289   -0.443148
      5          1           0       -0.557599    2.395499   -1.457638
      6          1           0       -1.080613    3.703761   -0.424210
      7          6           0        0.720736    2.736416    0.234895
      8          1           0        1.366882    3.408970   -0.289572
      9          1           0        0.616483    3.060240    1.249374
     10          7           0        1.296013    1.383906    0.208921
     11          7           0       -1.016642    0.398723    0.285413
     12          6           0        2.098735    1.216317   -1.011100
     13          1           0        1.454973    0.976697   -1.831498
     14          1           0        2.621535    2.125814   -1.221800
     15          6           0        2.151860    1.192710    1.388696
     16          1           0        2.966833    1.885187    1.354119
     17          1           0        1.578449    1.360763    2.276310
     18          6           0        2.700795   -0.246110    1.396916
     19          1           0        3.635925   -0.274056    0.877638
     20          1           0        2.844223   -0.567364    2.407423
     21          1           0        2.003640   -0.896609    0.911400
     22          6           0       -1.607838   -0.363708   -0.823679
     23          1           0       -1.149880   -1.329296   -0.876740
     24          1           0       -1.444897    0.159313   -1.742808
     25          6           0       -1.305431   -0.281293    1.556270
     26          1           0       -2.359754   -0.441601    1.643464
     27          1           0       -0.968464    0.325913    2.370306
     28          6           0       -0.575513   -1.636891    1.590548
     29          1           0        0.049295   -1.683717    2.457913
     30          1           0       -1.294655   -2.428402    1.625860
     31          1           0        0.025970   -1.740432    0.711687
     32          6           0        3.113776    0.076624   -0.805206
     33          6           0        2.718749   -1.249689   -0.982179
     34          6           0        4.428053    0.370288   -0.441911
     35          6           0        3.637685   -2.282076   -0.795221
     36          1           0        1.682327   -1.480918   -1.267844
     37          6           0        5.347647   -0.662246   -0.255818
     38          1           0        4.739612    1.415583   -0.302560
     39          6           0        4.952665   -1.988289   -0.432269
     40          1           0        3.326233   -3.327548   -0.934083
     41          1           0        6.383936   -0.430381    0.030221
     42          1           0        5.677052   -2.802454   -0.284972
     43          6           0       -3.120818   -0.525483   -0.586359
     44          6           0       -3.627432   -1.737299   -0.115916
     45          6           0       -3.984687    0.539472   -0.841604
     46          6           0       -4.997697   -1.884254    0.098561
     47          1           0       -2.946200   -2.576944    0.084486
     48          6           0       -5.355283    0.392952   -0.626176
     49          1           0       -3.585545    1.494699   -1.212220
     50          6           0       -5.861901   -0.818696   -0.156299
     51          1           0       -5.397161   -2.839591    0.468770
     52          1           0       -6.036118    1.232927   -0.827122
     53          1           0       -6.942262   -0.934781    0.012940
 ---------------------------------------------------------------------
 Rotational constants (GHZ):           0.5632890           0.1388088           0.1241687
 Standard basis: 6-31G(d) (6D, 7F)
 There are   405 symmetry adapted cartesian basis functions of A   symmetry.
 There are   405 symmetry adapted basis functions of A   symmetry.
   405 basis functions,   764 primitive gaussians,   405 cartesian basis functions
    85 alpha electrons       85 beta electrons
       nuclear repulsion energy      2017.5447754309 Hartrees.
 NAtoms=   53 NActive=   53 NUniq=   53 SFac= 1.00D+00 NAtFMM=   60 NAOKFM=F Big=F
 Integral buffers will be    131072 words long.
 Raffenetti 2 integral format.
 Two-electron integral symmetry is turned on.
 ------------------------------------------------------------------------------
 Polarizable Continuum Model (PCM)
 =================================
 Model                : PCM.
 Atomic radii         : SMD-Coulomb.
 Polarization charges : Total charges.
 Charge compensation  : None.
 Solution method      : On-the-fly selection.
 Cavity type          : VdW (van der Waals Surface) (Alpha=1.000).
 Cavity algorithm     : GePol (No added spheres)
                        Default sphere list used, NSphG=   53.
                        Lebedev-Laikov grids with approx.  5.0 points / Ang**2.
                        Smoothing algorithm: York/Karplus (Gamma=1.0000).
                        Polarization charges: spherical gaussians, with
                                              point-specific exponents (IZeta= 3).
                        Self-potential: point-specific (ISelfS= 7).
                        Self-field    : sphere-specific E.n sum rule (ISelfD= 2).
 1st derivatives      : Analytical E(r).r(x)/FMM algorithm (CHGder, D1EAlg=3).
                        Cavity 1st derivative terms included.
 Solvent              : Toluene, Eps=   2.374100 Eps(inf)=   2.238315
 ------------------------------------------------------------------------------
 ------------------------------------------------------------------------------
 Atomic radii for non-electrostatic terms: SMD-CDS.
 ------------------------------------------------------------------------------
 Nuclear repulsion after PCM non-electrostatic terms =     2017.5305378543 Hartrees.
 One-electron integrals computed using PRISM.
 NBasis=   405 RedAO= T EigKep=  4.40D-04  NBF=   405
 NBsUse=   405 1.00D-06 EigRej= -1.00D+00 NBFU=   405
 ExpMin= 1.61D-01 ExpMax= 4.17D+03 ExpMxC= 6.27D+02 IAcc=3 IRadAn=         5 AccDes= 0.00D+00
 Harris functional with IExCor=  402 and IRadAn=       5 diagonalized for initial guess.
 HarFok:  IExCor=  402 AccDes= 0.00D+00 IRadAn=         5 IDoV= 1 UseB2=F ITyADJ=14
 ICtDFT=  3500011 ScaDFX=  1.000000  1.000000  1.000000  1.000000
 FoFCou: FMM=F IPFlag=           0 FMFlag=      100000 FMFlg1=           0
         NFxFlg=           0 DoJE=T BraDBF=F KetDBF=T FulRan=T
         wScrn=  0.000000 ICntrl=       500 IOpCl=  0 I1Cent=   200000004 NGrid=           0
         NMat0=    1 NMatS0=      1 NMatT0=    0 NMatD0=    1 NMtDS0=    0 NMtDT0=    0
 Petite list used in FoFCou.
 Requested convergence on RMS density matrix=1.00D-08 within 128 cycles.
 Requested convergence on MAX density matrix=1.00D-06.
 Requested convergence on             energy=1.00D-06.
 No special actions if energy rises.
 Inv3:  Mode=1 IEnd=    34598448.
 Iteration    1 A*A^-1 deviation from unit magnitude is 6.44D-15 for   3392.
 Iteration    1 A*A^-1 deviation from orthogonality  is 1.87D-15 for   3368   3342.
 Iteration    1 A^-1*A deviation from unit magnitude is 6.22D-15 for   3392.
 Iteration    1 A^-1*A deviation from orthogonality  is 1.78D-15 for   3241    977.
 Error on total polarization charges =  0.03795
 SCF Done:  E(RB3LYP) =  -927.636405043     A.U. after   13 cycles
            NFock= 13  Conv=0.38D-08     -V/T= 2.0082
 SMD-CDS (non-electrostatic) energy       (kcal/mol) =      -8.93
 (included in total energy above)

 **********************************************************************

            Population analysis using the SCF Density.

 **********************************************************************

 Orbital symmetries:
       Occupied  (A) (A) (A) (A) (A) (A) (A) (A) (A) (A) (A) (A)
                 (A) (A) (A) (A) (A) (A) (A) (A) (A) (A) (A) (A)
                 (A) (A) (A) (A) (A) (A) (A) (A) (A) (A) (A) (A)
                 (A) (A) (A) (A) (A) (A) (A) (A) (A) (A) (A) (A)
                 (A) (A) (A) (A) (A) (A) (A) (A) (A) (A) (A) (A)
                 (A) (A) (A) (A) (A) (A) (A) (A) (A) (A) (A) (A)
                 (A) (A) (A) (A) (A) (A) (A) (A) (A) (A) (A) (A)
                 (A)
       Virtual   (A) (A) (A) (A) (A) (A) (A) (A) (A) (A) (A) (A)
                 (A) (A) (A) (A) (A) (A) (A) (A) (A) (A) (A) (A)
                 (A) (A) (A) (A) (A) (A) (A) (A) (A) (A) (A) (A)
                 (A) (A) (A) (A) (A) (A) (A) (A) (A) (A) (A) (A)
                 (A) (A) (A) (A) (A) (A) (A) (A) (A) (A) (A) (A)
                 (A) (A) (A) (A) (A) (A) (A) (A) (A) (A) (A) (A)
                 (A) (A) (A) (A) (A) (A) (A) (A) (A) (A) (A) (A)
                 (A) (A) (A) (A) (A) (A) (A) (A) (A) (A) (A) (A)
                 (A) (A) (A) (A) (A) (A) (A) (A) (A) (A) (A) (A)
                 (A) (A) (A) (A) (A) (A) (A) (A) (A) (A) (A) (A)
                 (A) (A) (A) (A) (A) (A) (A) (A) (A) (A) (A) (A)
                 (A) (A) (A) (A) (A) (A) (A) (A) (A) (A) (A) (A)
                 (A) (A) (A) (A) (A) (A) (A) (A) (A) (A) (A) (A)
                 (A) (A) (A) (A) (A) (A) (A) (A) (A) (A) (A) (A)
                 (A) (A) (A) (A) (A) (A) (A) (A) (A) (A) (A) (A)
                 (A) (A) (A) (A) (A) (A) (A) (A) (A) (A) (A) (A)
                 (A) (A) (A) (A) (A) (A) (A) (A) (A) (A) (A) (A)
                 (A) (A) (A) (A) (A) (A) (A) (A) (A) (A) (A) (A)
                 (A) (A) (A) (A) (A) (A) (A) (A) (A) (A) (A) (A)
                 (A) (A) (A) (A) (A) (A) (A) (A) (A) (A) (A) (A)
                 (A) (A) (A) (A) (A) (A) (A) (A) (A) (A) (A) (A)
                 (A) (A) (A) (A) (A) (A) (A) (A) (A) (A) (A) (A)
                 (A) (A) (A) (A) (A) (A) (A) (A) (A) (A) (A) (A)
                 (A) (A) (A) (A) (A) (A) (A) (A) (A) (A) (A) (A)
                 (A) (A) (A) (A) (A) (A) (A) (A) (A) (A) (A) (A)
                 (A) (A) (A) (A) (A) (A) (A) (A) (A) (A) (A) (A)
                 (A) (A) (A) (A) (A) (A) (A) (A)
 The electronic state is 1-A.
 Alpha  occ. eigenvalues --  -14.29532 -14.29381 -10.19271 -10.19156 -10.18755
 Alpha  occ. eigenvalues --  -10.18631 -10.18533 -10.18481 -10.18432 -10.18385
 Alpha  occ. eigenvalues --  -10.18275 -10.18239 -10.18231 -10.18129 -10.18100
 Alpha  occ. eigenvalues --  -10.18008 -10.17967 -10.17861 -10.17813 -10.17419
 Alpha  occ. eigenvalues --  -10.15976 -10.15039 -10.11919  -0.91630  -0.90371
 Alpha  occ. eigenvalues --   -0.85619  -0.84427  -0.77393  -0.75268  -0.75169
 Alpha  occ. eigenvalues --   -0.74267  -0.73789  -0.72820  -0.71728  -0.67940
 Alpha  occ. eigenvalues --   -0.65771  -0.62652  -0.60309  -0.59990  -0.59213
 Alpha  occ. eigenvalues --   -0.58460  -0.57689  -0.56125  -0.55179  -0.50736
 Alpha  occ. eigenvalues --   -0.50356  -0.48538  -0.48262  -0.46495  -0.46251
 Alpha  occ. eigenvalues --   -0.45276  -0.44856  -0.44624  -0.43420  -0.43299
 Alpha  occ. eigenvalues --   -0.42397  -0.41650  -0.41188  -0.40571  -0.40270
 Alpha  occ. eigenvalues --   -0.39811  -0.39513  -0.38170  -0.37875  -0.36774
 Alpha  occ. eigenvalues --   -0.36555  -0.35931  -0.35389  -0.34676  -0.34373
 Alpha  occ. eigenvalues --   -0.33747  -0.33448  -0.33185  -0.32882  -0.32473
 Alpha  occ. eigenvalues --   -0.32097  -0.31010  -0.30154  -0.29320  -0.24370
 Alpha  occ. eigenvalues --   -0.23743  -0.23614  -0.22404  -0.21220  -0.14944
 Alpha virt. eigenvalues --   -0.00590   0.00095   0.00345   0.00724   0.08283
 Alpha virt. eigenvalues --    0.08677   0.09891   0.10607   0.11048   0.12274
 Alpha virt. eigenvalues --    0.13751   0.13859   0.14405   0.15016   0.15212
 Alpha virt. eigenvalues --    0.16041   0.16310   0.16572   0.17131   0.17483
 Alpha virt. eigenvalues --    0.17766   0.18003   0.18686   0.18914   0.19704
 Alpha virt. eigenvalues --    0.19899   0.20236   0.20653   0.21234   0.21665
 Alpha virt. eigenvalues --    0.22242   0.22807   0.23203   0.24107   0.24786
 Alpha virt. eigenvalues --    0.25163   0.25414   0.26331   0.26717   0.27253
 Alpha virt. eigenvalues --    0.27504   0.28030   0.28339   0.30013   0.30183
 Alpha virt. eigenvalues --    0.30912   0.31539   0.32204   0.33198   0.33260
 Alpha virt. eigenvalues --    0.34318   0.34675   0.35360   0.35619   0.36213
 Alpha virt. eigenvalues --    0.38179   0.46498   0.46606   0.49075   0.49847
 Alpha virt. eigenvalues --    0.51026   0.51776   0.52869   0.53662   0.54123
 Alpha virt. eigenvalues --    0.54863   0.55357   0.55861   0.57027   0.57696
 Alpha virt. eigenvalues --    0.58567   0.58752   0.59056   0.59372   0.59865
 Alpha virt. eigenvalues --    0.59952   0.60450   0.60690   0.61084   0.61231
 Alpha virt. eigenvalues --    0.61630   0.61758   0.62180   0.62720   0.63626
 Alpha virt. eigenvalues --    0.64179   0.64409   0.65067   0.66062   0.66686
 Alpha virt. eigenvalues --    0.66988   0.68399   0.68611   0.69358   0.70784
 Alpha virt. eigenvalues --    0.71314   0.72842   0.73982   0.75258   0.75490
 Alpha virt. eigenvalues --    0.77380   0.78206   0.79520   0.80726   0.81443
 Alpha virt. eigenvalues --    0.81954   0.82118   0.83495   0.83781   0.83892
 Alpha virt. eigenvalues --    0.84170   0.84574   0.84838   0.85326   0.85696
 Alpha virt. eigenvalues --    0.86407   0.87207   0.88145   0.88664   0.89730
 Alpha virt. eigenvalues --    0.90256   0.91395   0.91591   0.92411   0.92515
 Alpha virt. eigenvalues --    0.92923   0.93927   0.94221   0.94754   0.95437
 Alpha virt. eigenvalues --    0.95975   0.96500   0.97621   0.97980   0.98367
 Alpha virt. eigenvalues --    0.99287   0.99706   1.00255   1.01277   1.01777
 Alpha virt. eigenvalues --    1.02115   1.02755   1.03678   1.04615   1.05220
 Alpha virt. eigenvalues --    1.07105   1.07494   1.09107   1.09787   1.10378
 Alpha virt. eigenvalues --    1.12176   1.12889   1.13101   1.15077   1.15563
 Alpha virt. eigenvalues --    1.17016   1.19097   1.19783   1.21333   1.23173
 Alpha virt. eigenvalues --    1.24779   1.25637   1.27049   1.29063   1.29186
 Alpha virt. eigenvalues --    1.31353   1.32358   1.36387   1.37088   1.39587
 Alpha virt. eigenvalues --    1.41417   1.42878   1.43758   1.45302   1.46306
 Alpha virt. eigenvalues --    1.46505   1.46682   1.48139   1.49266   1.49707
 Alpha virt. eigenvalues --    1.50173   1.51321   1.53105   1.53724   1.57504
 Alpha virt. eigenvalues --    1.58414   1.59587   1.60517   1.62582   1.66025
 Alpha virt. eigenvalues --    1.67243   1.70106   1.70720   1.73334   1.75579
 Alpha virt. eigenvalues --    1.78064   1.79494   1.81092   1.82473   1.83157
 Alpha virt. eigenvalues --    1.83848   1.84615   1.85783   1.88004   1.88823
 Alpha virt. eigenvalues --    1.89782   1.90937   1.92132   1.92574   1.93366
 Alpha virt. eigenvalues --    1.94554   1.95528   1.96357   1.96736   1.97169
 Alpha virt. eigenvalues --    1.97596   1.99775   2.01321   2.03119   2.03614
 Alpha virt. eigenvalues --    2.05117   2.05616   2.05667   2.06947   2.07459
 Alpha virt. eigenvalues --    2.08797   2.08982   2.10060   2.10371   2.12168
 Alpha virt. eigenvalues --    2.12944   2.13274   2.14971   2.16393   2.16908
 Alpha virt. eigenvalues --    2.17197   2.18291   2.18623   2.19782   2.21730
 Alpha virt. eigenvalues --    2.22534   2.24359   2.25707   2.27696   2.28100
 Alpha virt. eigenvalues --    2.29680   2.30448   2.31549   2.32603   2.32890
 Alpha virt. eigenvalues --    2.34591   2.36321   2.36552   2.38996   2.39388
 Alpha virt. eigenvalues --    2.41348   2.41775   2.43032   2.44249   2.46612
 Alpha virt. eigenvalues --    2.47272   2.49332   2.50271   2.52056   2.56133
 Alpha virt. eigenvalues --    2.56412   2.58033   2.58800   2.59563   2.60794
 Alpha virt. eigenvalues --    2.61913   2.63328   2.65709   2.67008   2.67417
 Alpha virt. eigenvalues --    2.68673   2.69929   2.72896   2.74101   2.74865
 Alpha virt. eigenvalues --    2.75498   2.76139   2.77446   2.77634   2.78467
 Alpha virt. eigenvalues --    2.79112   2.80780   2.85301   2.86532   2.90287
 Alpha virt. eigenvalues --    2.93657   2.94525   3.01367   3.06354   3.06871
 Alpha virt. eigenvalues --    3.41650   3.42014   4.09978   4.12051   4.13576
 Alpha virt. eigenvalues --    4.15180   4.19055   4.21771   4.24001   4.25517
 Alpha virt. eigenvalues --    4.28016   4.32286   4.33689   4.36041   4.41797
 Alpha virt. eigenvalues --    4.42010   4.44337   4.47820   4.51198   4.52938
 Alpha virt. eigenvalues --    4.60944   4.65209   4.69896   4.73181   4.78914
          Condensed to atoms (all electrons):
 Mulliken charges:
               1
     1  C   -0.127123
     2  H    0.109813
     3  H    0.132994
     4  C   -0.271102
     5  H    0.138032
     6  H    0.127491
     7  C   -0.125630
     8  H    0.115340
     9  H    0.135755
    10  N   -0.353536
    11  N   -0.340764
    12  C   -0.160836
    13  H    0.149508
    14  H    0.123370
    15  C   -0.128302
    16  H    0.104212
    17  H    0.140033
    18  C   -0.463345
    19  H    0.174609
    20  H    0.104553
    21  H    0.186698
    22  C   -0.230489
    23  H    0.152852
    24  H    0.153383
    25  C   -0.129467
    26  H    0.136897
    27  H    0.142027
    28  C   -0.488695
    29  H    0.154232
    30  H    0.145102
    31  H    0.172917
    32  C    0.059456
    33  C   -0.188586
    34  C   -0.204539
    35  C   -0.128672
    36  H    0.153172
    37  C   -0.128298
    38  H    0.144129
    39  C   -0.137067
    40  H    0.141449
    41  H    0.141442
    42  H    0.141813
    43  C    0.125278
    44  C   -0.187497
    45  C   -0.196167
    46  C   -0.143857
    47  H    0.141889
    48  C   -0.155819
    49  H    0.170781
    50  C   -0.144545
    51  H    0.138466
    52  H    0.139094
    53  H    0.137545
 Sum of Mulliken charges =  -0.00000
 Mulliken charges with hydrogens summed into heavy atoms:
               1
     1  C    0.115684
     4  C   -0.005579
     7  C    0.125466
    10  N   -0.353536
    11  N   -0.340764
    12  C    0.112042
    15  C    0.115943
    18  C    0.002515
    22  C    0.075746
    25  C    0.149457
    28  C   -0.016444
    32  C    0.059456
    33  C   -0.035414
    34  C   -0.060410
    35  C    0.012777
    37  C    0.013144
    39  C    0.004746
    43  C    0.125278
    44  C   -0.045608
    45  C   -0.025386
    46  C   -0.005390
    48  C   -0.016725
    50  C   -0.007000
 Electronic spatial extent (au):  <R**2>=           8844.5624
 Charge=             -0.0000 electrons
 Dipole moment (field-independent basis, Debye):
    X=             -0.2425    Y=              0.5563    Z=              0.0301  Tot=              0.6076
 Quadrupole moment (field-independent basis, Debye-Ang):
   XX=           -134.0289   YY=           -131.2207   ZZ=           -143.7846
   XY=             -1.1432   XZ=              0.4025   YZ=             -0.5919
 Traceless Quadrupole moment (field-independent basis, Debye-Ang):
   XX=              2.3159   YY=              5.1240   ZZ=             -7.4399
   XY=             -1.1432   XZ=              0.4025   YZ=             -0.5919
 Octapole moment (field-independent basis, Debye-Ang**2):
  XXX=              2.7708  YYY=             -7.5354  ZZZ=             12.0056  XYY=              0.6251
  XXY=              1.1554  XXZ=             19.7052  XZZ=             -5.5000  YZZ=             11.4371
  YYZ=              0.3445  XYZ=             10.9166
 Hexadecapole moment (field-independent basis, Debye-Ang**3):
 XXXX=          -8681.8672 YYYY=          -1970.3797 ZZZZ=           -850.4225 XXXY=            -42.5729
 XXXZ=             40.1770 YYYX=            -26.8337 YYYZ=              8.8345 ZZZX=              8.3407
 ZZZY=             -2.0312 XXYY=          -1768.9898 XXZZ=          -1861.1117 YYZZ=           -490.0832
 XXYZ=            -59.2281 YYXZ=            -21.7309 ZZXY=             -0.6622
 N-N= 2.017530537854D+03 E-N=-6.184832104212D+03  KE= 9.201329216544D+02
 D1PCM: PCM CHGder 1st derivatives, ID1Alg=3 FixD1E=F DoIter=F DoCFld=F I1PDM=0.
 Calling FoFJK, ICntrl=      2127 FMM=F ISym2X=0 I1Cent= 0 IOpClX= 0 NMat=1 NMatS=1 NMatT=0.
 ***** Axes restored to original set *****
 -------------------------------------------------------------------
 Center     Atomic                   Forces (Hartrees/Bohr)
 Number     Number              X              Y              Z
 -------------------------------------------------------------------
      1        6           0.031017053    0.013750797    0.011058930
      2        1          -0.005430023    0.006305925   -0.014870859
      3        1          -0.011805387    0.007699308   -0.010150697
      4        6          -0.023068793    0.019806309    0.006886654
      5        1           0.014166605   -0.010420695    0.007160096
      6        1           0.005726354   -0.005714007   -0.018303799
      7        6          -0.004660806   -0.031184570    0.021438462
      8        1           0.019245089    0.010409829   -0.012488558
      9        1          -0.011399430    0.008828893   -0.009896558
     10        7           0.013091503    0.030342895   -0.013376789
     11        7          -0.022555684   -0.018135954   -0.006039356
     12        6          -0.029658436    0.018679189    0.022630286
     13        1           0.005943446   -0.017432175    0.001948445
     14        1           0.021086431    0.008846108   -0.008764817
     15        6           0.002818724   -0.019685679    0.027599097
     16        1           0.010041006    0.023289684   -0.011152093
     17        1          -0.012313665   -0.000877695   -0.012095165
     18        6          -0.045514716    0.022792898   -0.028389758
     19        1          -0.049308281    0.013272799   -0.000392188
     20        1          -0.021520916    0.012749965   -0.001159445
     21        1          -0.013851332   -0.000990196   -0.000162650
     22        6          -0.029703147   -0.011434458   -0.022708847
     23        1           0.001659490    0.001899623    0.015631622
     24        1           0.017687680   -0.002622124   -0.002092685
     25        6           0.019780372    0.003549763    0.024687759
     26        1          -0.019058447   -0.008397289   -0.008319844
     27        1          -0.001104457    0.011195328   -0.012453770
     28        6          -0.004234060   -0.004792295   -0.020350127
     29        1          -0.006451200    0.015127311    0.005843455
     30        1          -0.011200680   -0.007333092    0.012780597
     31        1           0.010272205    0.002977047    0.009997740
     32        6           0.061216139   -0.041050910   -0.003725033
     33        6           0.022232948   -0.014843387    0.012907544
     34        6           0.049457529    0.000808513    0.007279107
     35        6          -0.002378103   -0.006149014    0.007060898
     36        1           0.003305769    0.008007197   -0.000533030
     37        6           0.013460235    0.009930642    0.000443698
     38        1          -0.004060287   -0.004071330    0.006774005
     39        6          -0.002880652    0.005815342    0.009370330
     40        1           0.003087966    0.003662357   -0.006660246
     41        1          -0.003177586   -0.007795270   -0.000816756
     42        1           0.000673210   -0.004181490   -0.007168275
     43        6           0.022258551    0.001532537    0.019918397
     44        6          -0.005306968   -0.002603416    0.004766873
     45        6           0.001751276   -0.016584393   -0.005350801
     46        6          -0.008573784   -0.001714992    0.005376612
     47        1           0.002122377   -0.005238280   -0.006757275
     48        6           0.000210449   -0.004189336   -0.009126196
     49        1          -0.006321665   -0.017227506    0.009977231
     50        6          -0.007420119   -0.007801579   -0.002833583
     51        1           0.006220239    0.001583399   -0.004751401
     52        1          -0.000946122    0.003782215    0.007133868
     53        1           0.005372103    0.005825259    0.002218895
 -------------------------------------------------------------------
 Cartesian Forces:  Max     0.061216139 RMS     0.015271365

 GradGradGradGradGradGradGradGradGradGradGradGradGradGradGradGradGradGrad
 Berny optimization.
 FormGI is forming the generalized inverse of G from B-inverse, IUseBI=4.
 Internal  Forces:  Max     0.401300079 RMS     0.046875974
 Search for a local minimum.
 Step number   1 out of a maximum of  292
 All quantities printed in internal units (Hartrees-Bohrs-Radians)
 Mixed Optimization -- RFO/linear search
 Second derivative matrix not updated -- first step.
 ITU=  0
     Eigenvalues ---    0.00237   0.00237   0.00237   0.00237   0.00237
     Eigenvalues ---    0.00237   0.00766   0.00766   0.00766   0.00766
     Eigenvalues ---    0.00766   0.00766   0.01388   0.01388   0.02152
     Eigenvalues ---    0.02152   0.02153   0.02153   0.02154   0.02154
     Eigenvalues ---    0.02155   0.02155   0.02155   0.02155   0.02155
     Eigenvalues ---    0.02155   0.02156   0.02156   0.02157   0.02157
     Eigenvalues ---    0.03189   0.03190   0.03840   0.04502   0.04502
     Eigenvalues ---    0.04502   0.04502   0.04896   0.05269   0.05269
     Eigenvalues ---    0.05496   0.05496   0.05496   0.05496   0.05720
     Eigenvalues ---    0.05720   0.05720   0.05720   0.06518   0.06518
     Eigenvalues ---    0.07655   0.08860   0.08860   0.08860   0.08860
     Eigenvalues ---    0.09364   0.09364   0.11701   0.12453   0.12453
     Eigenvalues ---    0.12453   0.12453   0.12902   0.12902   0.16000
     Eigenvalues ---    0.16000   0.16000   0.16000   0.16000   0.16000
     Eigenvalues ---    0.16000   0.16000   0.16000   0.16000   0.16000
     Eigenvalues ---    0.16000   0.16000   0.16000   0.16000   0.16000
     Eigenvalues ---    0.16274   0.16276   0.16276   0.16276   0.21948
     Eigenvalues ---    0.21985   0.21985   0.21985   0.21985   0.22000
     Eigenvalues ---    0.22000   0.22000   0.22000   0.22022   0.22022
     Eigenvalues ---    0.23486   0.23486   0.25000   0.25000   0.28519
     Eigenvalues ---    0.28519   0.28519   0.28519   0.28519   0.28519
     Eigenvalues ---    0.33709   0.33709   0.33718   0.33718   0.33718
     Eigenvalues ---    0.33718   0.33720   0.33720   0.33726   0.33726
     Eigenvalues ---    0.35740   0.35740   0.35740   0.35740   0.35740
     Eigenvalues ---    0.35740   0.37230   0.37230   0.37230   0.37230
     Eigenvalues ---    0.37230   0.37230   0.37230   0.37230   0.37230
     Eigenvalues ---    0.37230   0.37230   0.37230   0.37230   0.37230
     Eigenvalues ---    0.37230   0.37230   0.37230   0.37230   0.37230
     Eigenvalues ---    0.37230   0.42121   0.42121   0.42300   0.42300
     Eigenvalues ---    0.46412   0.46412   0.46453   0.46453   0.46466
     Eigenvalues ---    0.46466   0.46497   0.46497
 RFO step:  Lambda=-6.98291659D-01 EMin= 2.36824156D-03
 Linear search not attempted -- first point.
 Maximum step size (   0.300) exceeded in Quadratic search.
    -- Step size scaled by   0.389
 Iteration  1 RMS(Cart)=  0.26735005 RMS(Int)=  0.00814905
 Iteration  2 RMS(Cart)=  0.07527056 RMS(Int)=  0.00074952
 Iteration  3 RMS(Cart)=  0.00220582 RMS(Int)=  0.00040731
 Iteration  4 RMS(Cart)=  0.00000138 RMS(Int)=  0.00040731
 Iteration  5 RMS(Cart)=  0.00000000 RMS(Int)=  0.00040731
 Variable       Old X    -DE/DX   Delta X   Delta X   Delta X     New X
                                 (Linear)    (Quad)   (Total)
    R1        2.02201  -0.00303   0.00000  -0.00110  -0.00110   2.02091
    R2        2.02201   0.01732   0.00000   0.00628   0.00628   2.02829
    R3        2.91018   0.03072   0.00000   0.01214   0.01214   2.92231
    R4        2.77790   0.01147   0.00000   0.00422   0.00422   2.78212
    R5        2.02201   0.01868   0.00000   0.00678   0.00678   2.02879
    R6        2.02201   0.01967   0.00000   0.00714   0.00714   2.02914
    R7        2.91018   0.03104   0.00000   0.01226   0.01226   2.92244
    R8        2.02201   0.02402   0.00000   0.00872   0.00872   2.03073
    R9        2.02201   0.01747   0.00000   0.00634   0.00634   2.02835
   R10        2.77790   0.00574   0.00000   0.00211   0.00211   2.78001
   R11        2.77790   0.14238   0.00000   0.05240   0.05240   2.83030
   R12        2.77790   0.09472   0.00000   0.03486   0.03486   2.81276
   R13        2.77790   0.05112   0.00000   0.01881   0.01881   2.79671
   R14        2.77790   0.01653   0.00000   0.00609   0.00609   2.78398
   R15        2.02201   0.01836   0.00000   0.00666   0.00666   2.02867
   R16        2.02201   0.02366   0.00000   0.00859   0.00859   2.03059
   R17        2.91018  -0.01336   0.00000  -0.00528  -0.00528   2.90490
   R18        2.02201   0.02625   0.00000   0.00953   0.00953   2.03153
   R19        2.02201   0.01673   0.00000   0.00607   0.00607   2.02808
   R20        2.91018   0.00296   0.00000   0.00117   0.00117   2.91135
   R21        2.02201  -0.03371   0.00000  -0.01223  -0.01223   2.00977
   R22        2.02201   0.02464   0.00000   0.00894   0.00894   2.03095
   R23        2.02201   0.00343   0.00000   0.00125   0.00125   2.02325
   R24        2.02201   0.01547   0.00000   0.00561   0.00561   2.02762
   R25        2.02201   0.01773   0.00000   0.00644   0.00644   2.02844
   R26        2.91018   0.01950   0.00000   0.00770   0.00770   2.91788
   R27        2.02201   0.01962   0.00000   0.00712   0.00712   2.02913
   R28        2.02201   0.01630   0.00000   0.00592   0.00592   2.02792
   R29        2.91018   0.01095   0.00000   0.00433   0.00433   2.91450
   R30        2.02201   0.01664   0.00000   0.00604   0.00604   2.02804
   R31        2.02201   0.01745   0.00000   0.00633   0.00633   2.02834
   R32        2.02201   0.01369   0.00000   0.00497   0.00497   2.02698
   R33        2.63647   0.00247   0.00000   0.00084   0.00085   2.63732
   R34        2.63584   0.01497   0.00000   0.00504   0.00504   2.64089
   R35        2.63562   0.00176   0.00000   0.00057   0.00057   2.63619
   R36        2.07805  -0.00861   0.00000  -0.00323  -0.00323   2.07482
   R37        2.63643   0.00023   0.00000   0.00009   0.00009   2.63652
   R38        2.07795  -0.00886   0.00000  -0.00332  -0.00332   2.07463
   R39        2.63697   0.00412   0.00000   0.00134   0.00134   2.63831
   R40        2.07809  -0.00820   0.00000  -0.00308  -0.00308   2.07502
   R41        2.63584   0.00335   0.00000   0.00110   0.00110   2.63694
   R42        2.07825  -0.00844   0.00000  -0.00317  -0.00317   2.07508
   R43        2.07809  -0.00832   0.00000  -0.00312  -0.00312   2.07497
   R44        2.63647   0.00900   0.00000   0.00307   0.00307   2.63954
   R45        2.63584   0.01829   0.00000   0.00620   0.00620   2.64205
   R46        2.63562   0.00225   0.00000   0.00072   0.00072   2.63635
   R47        2.07805  -0.00869   0.00000  -0.00326  -0.00326   2.07479
   R48        2.63643   0.00337   0.00000   0.00115   0.00115   2.63758
   R49        2.07795  -0.01468   0.00000  -0.00551  -0.00551   2.07244
   R50        2.63697  -0.00293   0.00000  -0.00107  -0.00107   2.63590
   R51        2.07809  -0.00799   0.00000  -0.00300  -0.00300   2.07510
   R52        2.63584  -0.00209   0.00000  -0.00076  -0.00076   2.63507
   R53        2.07825  -0.00812   0.00000  -0.00305  -0.00305   2.07520
   R54        2.07809  -0.00823   0.00000  -0.00309  -0.00309   2.07501
    A1        1.91063   0.00524   0.00000   0.00107   0.00097   1.91161
    A2        1.91063  -0.02321   0.00000  -0.01003  -0.01002   1.90061
    A3        1.91063  -0.02029   0.00000  -0.00843  -0.00840   1.90223
    A4        1.91063  -0.01822   0.00000  -0.00746  -0.00751   1.90312
    A5        1.91063  -0.01619   0.00000  -0.00625  -0.00627   1.90436
    A6        1.91063   0.07267   0.00000   0.03110   0.03112   1.94176
    A7        1.91063  -0.02068   0.00000  -0.00774  -0.00787   1.90276
    A8        1.91063  -0.03596   0.00000  -0.01582  -0.01569   1.89494
    A9        1.91063   0.09977   0.00000   0.04260   0.04266   1.95329
   A10        1.91063   0.01377   0.00000   0.00466   0.00447   1.91511
   A11        1.91063  -0.02039   0.00000  -0.00761  -0.00773   1.90290
   A12        1.91063  -0.03651   0.00000  -0.01609  -0.01596   1.89467
   A13        1.91063  -0.02344   0.00000  -0.01005  -0.01000   1.90063
   A14        1.91063  -0.01984   0.00000  -0.00800  -0.00806   1.90258
   A15        1.91063   0.08067   0.00000   0.03445   0.03448   1.94512
   A16        1.91063   0.00840   0.00000   0.00252   0.00240   1.91304
   A17        1.91063  -0.02837   0.00000  -0.01226  -0.01222   1.89841
   A18        1.91063  -0.01741   0.00000  -0.00666  -0.00671   1.90393
   A19        1.91056  -0.16266   0.00000  -0.07291  -0.07113   1.83943
   A20        1.91063  -0.09890   0.00000  -0.04414  -0.04121   1.86942
   A21        1.91063   0.27970   0.00000   0.12670   0.12576   2.03639
   A22        1.91063   0.03710   0.00000   0.01731   0.01732   1.92796
   A23        1.91063  -0.01549   0.00000  -0.00642  -0.00646   1.90417
   A24        1.91063  -0.00031   0.00000   0.00043   0.00044   1.91108
   A25        1.91063  -0.12129   0.00000  -0.05124  -0.05093   1.85970
   A26        1.91063  -0.09628   0.00000  -0.03887  -0.03916   1.87147
   A27        1.91063   0.40130   0.00000   0.17106   0.17174   2.08237
   A28        1.91063   0.04096   0.00000   0.01283   0.01006   1.92070
   A29        1.91063  -0.11270   0.00000  -0.04736  -0.04701   1.86363
   A30        1.91063  -0.11198   0.00000  -0.04642  -0.04704   1.86359
   A31        1.91063  -0.05576   0.00000  -0.02107  -0.02273   1.88790
   A32        1.91063  -0.07341   0.00000  -0.03273  -0.03151   1.87912
   A33        1.91063   0.21866   0.00000   0.09328   0.09327   2.00391
   A34        1.91063   0.02623   0.00000   0.00861   0.00796   1.91859
   A35        1.91063  -0.00240   0.00000   0.00351   0.00270   1.91333
   A36        1.91063  -0.11331   0.00000  -0.05160  -0.05071   1.85992
   A37        1.91063   0.03836   0.00000   0.01764   0.01762   1.92826
   A38        1.91063  -0.01728   0.00000  -0.00828  -0.00827   1.90237
   A39        1.91063   0.00051   0.00000   0.00041   0.00036   1.91099
   A40        1.91063  -0.01774   0.00000  -0.00838  -0.00834   1.90229
   A41        1.91063  -0.00095   0.00000   0.00048   0.00040   1.91103
   A42        1.91063  -0.00290   0.00000  -0.00187  -0.00189   1.90875
   A43        1.91063  -0.04009   0.00000  -0.01759  -0.01751   1.89313
   A44        1.91063  -0.02020   0.00000  -0.00752  -0.00765   1.90298
   A45        1.91063   0.10777   0.00000   0.04597   0.04601   1.95664
   A46        1.91063   0.00970   0.00000   0.00279   0.00260   1.91324
   A47        1.91063  -0.03359   0.00000  -0.01452  -0.01440   1.89623
   A48        1.91063  -0.02360   0.00000  -0.00913  -0.00927   1.90137
   A49        1.91063  -0.00014   0.00000   0.00041   0.00041   1.91104
   A50        1.91063  -0.01096   0.00000  -0.00495  -0.00495   1.90568
   A51        1.91063   0.02062   0.00000   0.00886   0.00886   1.91950
   A52        1.91063  -0.00031   0.00000  -0.00060  -0.00061   1.91003
   A53        1.91063  -0.00579   0.00000  -0.00231  -0.00233   1.90831
   A54        1.91063  -0.00342   0.00000  -0.00141  -0.00140   1.90923
   A55        1.91063   0.00484   0.00000   0.00216   0.00216   1.91280
   A56        1.91063   0.00692   0.00000   0.00315   0.00315   1.91378
   A57        1.91063   0.00457   0.00000   0.00208   0.00207   1.91271
   A58        1.91063  -0.00608   0.00000  -0.00276  -0.00277   1.90787
   A59        1.91063  -0.00552   0.00000  -0.00254  -0.00254   1.90809
   A60        1.91063  -0.00473   0.00000  -0.00209  -0.00209   1.90854
   A61        2.09435   0.01230   0.00000   0.00501   0.00497   2.09932
   A62        2.09447  -0.00827   0.00000  -0.00342  -0.00345   2.09102
   A63        2.09437  -0.00403   0.00000  -0.00159  -0.00162   2.09275
   A64        2.09455   0.00047   0.00000   0.00019   0.00020   2.09474
   A65        2.09406  -0.00136   0.00000  -0.00060  -0.00061   2.09345
   A66        2.09458   0.00089   0.00000   0.00041   0.00041   2.09499
   A67        2.09440   0.00270   0.00000   0.00121   0.00121   2.09561
   A68        2.09453  -0.00182   0.00000  -0.00082  -0.00082   2.09372
   A69        2.09426  -0.00088   0.00000  -0.00039  -0.00039   2.09386
   A70        2.09429   0.00208   0.00000   0.00080   0.00080   2.09509
   A71        2.09462  -0.00101   0.00000  -0.00039  -0.00039   2.09423
   A72        2.09427  -0.00107   0.00000  -0.00041  -0.00041   2.09386
   A73        2.09448  -0.00205   0.00000  -0.00087  -0.00087   2.09360
   A74        2.09411   0.00076   0.00000   0.00032   0.00032   2.09443
   A75        2.09459   0.00128   0.00000   0.00055   0.00055   2.09515
   A76        2.09429   0.00082   0.00000   0.00027   0.00026   2.09455
   A77        2.09407  -0.00033   0.00000  -0.00010  -0.00010   2.09397
   A78        2.09483  -0.00049   0.00000  -0.00017  -0.00017   2.09466
   A79        2.09435  -0.01924   0.00000  -0.00796  -0.00796   2.08639
   A80        2.09447   0.03946   0.00000   0.01609   0.01609   2.11056
   A81        2.09437  -0.02022   0.00000  -0.00814  -0.00813   2.08623
   A82        2.09455   0.01138   0.00000   0.00482   0.00482   2.09937
   A83        2.09406  -0.00585   0.00000  -0.00248  -0.00248   2.09158
   A84        2.09458  -0.00553   0.00000  -0.00234  -0.00234   2.09224
   A85        2.09440   0.00685   0.00000   0.00300   0.00300   2.09740
   A86        2.09453   0.00443   0.00000   0.00206   0.00205   2.09659
   A87        2.09426  -0.01128   0.00000  -0.00506  -0.00506   2.08920
   A88        2.09429   0.00156   0.00000   0.00047   0.00046   2.09476
   A89        2.09462  -0.00063   0.00000  -0.00016  -0.00016   2.09446
   A90        2.09427  -0.00093   0.00000  -0.00030  -0.00030   2.09397
   A91        2.09448   0.00338   0.00000   0.00134   0.00134   2.09582
   A92        2.09411  -0.00163   0.00000  -0.00064  -0.00064   2.09347
   A93        2.09459  -0.00175   0.00000  -0.00070  -0.00070   2.09390
   A94        2.09429  -0.00295   0.00000  -0.00149  -0.00149   2.09280
   A95        2.09407   0.00151   0.00000   0.00076   0.00076   2.09483
   A96        2.09483   0.00144   0.00000   0.00073   0.00073   2.09556
    D1       -1.04739  -0.00090   0.00000  -0.00069  -0.00067  -1.04807
    D2        1.04700  -0.01871   0.00000  -0.00942  -0.00933   1.03767
    D3        3.14140  -0.02436   0.00000  -0.01272  -0.01273   3.12867
    D4        3.14140   0.01805   0.00000   0.00870   0.00867  -3.13311
    D5       -1.04739   0.00024   0.00000  -0.00002   0.00002  -1.04737
    D6        1.04700  -0.00540   0.00000  -0.00332  -0.00339   1.04362
    D7        1.04700   0.00454   0.00000   0.00188   0.00186   1.04886
    D8        3.14140  -0.01328   0.00000  -0.00684  -0.00680   3.13460
    D9       -1.04739  -0.01892   0.00000  -0.01014  -0.01020  -1.05759
   D10        0.42447   0.01527   0.00000   0.00797   0.00794   0.43241
   D11       -1.66992   0.00241   0.00000   0.00076   0.00075  -1.66917
   D12        2.51887  -0.00066   0.00000   0.00029   0.00029   2.51915
   D13        0.42447  -0.01352   0.00000  -0.00692  -0.00690   0.41757
   D14       -1.66992   0.01161   0.00000   0.00637   0.00637  -1.66355
   D15        2.51887  -0.00124   0.00000  -0.00084  -0.00082   2.51804
   D16        3.14156   0.02108   0.00000   0.01101   0.01103  -3.13060
   D17       -1.04723   0.00486   0.00000   0.00305   0.00311  -1.04412
   D18        1.04716   0.02078   0.00000   0.01108   0.01114   1.05830
   D19        1.04716  -0.00221   0.00000  -0.00093  -0.00095   1.04621
   D20        3.14156  -0.01843   0.00000  -0.00890  -0.00887   3.13268
   D21       -1.04723  -0.00250   0.00000  -0.00087  -0.00085  -1.04808
   D22       -1.04723   0.01577   0.00000   0.00787   0.00779  -1.03945
   D23        1.04716  -0.00045   0.00000  -0.00009  -0.00013   1.04703
   D24        3.14156   0.01548   0.00000   0.00794   0.00789  -3.13374
   D25        1.58484  -0.09728   0.00000  -0.04503  -0.04598   1.53886
   D26       -2.60399   0.08512   0.00000   0.03847   0.03936  -2.56464
   D27       -0.50955  -0.10059   0.00000  -0.04632  -0.04719  -0.55674
   D28        1.58480   0.08180   0.00000   0.03718   0.03815   1.62294
   D29       -2.60395  -0.08284   0.00000  -0.03782  -0.03875  -2.64270
   D30       -0.50960   0.09955   0.00000   0.04568   0.04659  -0.46301
   D31       -1.42750   0.01642   0.00000   0.00899   0.00717  -1.42033
   D32        0.66690  -0.06665   0.00000  -0.03048  -0.03100   0.63589
   D33        2.76129  -0.01702   0.00000  -0.00638  -0.00700   2.75429
   D34        2.76134   0.06590   0.00000   0.03012   0.03028   2.79162
   D35       -1.42745  -0.01718   0.00000  -0.00935  -0.00789  -1.43534
   D36        0.66695   0.03246   0.00000   0.01475   0.01611   0.68306
   D37       -1.09403   0.03775   0.00000   0.01305   0.01309  -1.08094
   D38        1.00037  -0.00923   0.00000  -0.00935  -0.00874   0.99163
   D39        3.09476  -0.05906   0.00000  -0.03546  -0.03518   3.05958
   D40        1.00027  -0.05077   0.00000  -0.02569  -0.02628   0.97400
   D41        3.09467  -0.09774   0.00000  -0.04809  -0.04810   3.04656
   D42       -1.09412  -0.14757   0.00000  -0.07420  -0.07455  -1.16867
   D43        3.08679  -0.01341   0.00000  -0.00711  -0.00703   3.07976
   D44        0.99240   0.01162   0.00000   0.00485   0.00482   0.99721
   D45       -1.10200  -0.01310   0.00000  -0.00752  -0.00762  -1.10962
   D46       -1.10200  -0.00985   0.00000  -0.00410  -0.00398  -1.10598
   D47        3.08679   0.01518   0.00000   0.00786   0.00787   3.09466
   D48        0.99240  -0.00954   0.00000  -0.00450  -0.00456   0.98783
   D49        1.15350   0.01328   0.00000   0.00644   0.00642   1.15993
   D50       -0.94089   0.02046   0.00000   0.00995   0.00994  -0.93095
   D51       -3.03529   0.01873   0.00000   0.00929   0.00928  -3.02600
   D52       -0.94089  -0.02248   0.00000  -0.01111  -0.01110  -0.95199
   D53       -3.03529  -0.01530   0.00000  -0.00759  -0.00759  -3.04287
   D54        1.15351  -0.01703   0.00000  -0.00826  -0.00824   1.14527
   D55        1.43862  -0.00554   0.00000  -0.00270  -0.00269   1.43593
   D56       -1.70306  -0.03295   0.00000  -0.01765  -0.01766  -1.72072
   D57       -0.65577  -0.03371   0.00000  -0.01569  -0.01489  -0.67066
   D58        2.48573  -0.06113   0.00000  -0.03065  -0.02986   2.45587
   D59       -2.75017   0.05371   0.00000   0.02603   0.02525  -2.72492
   D60        0.39133   0.02629   0.00000   0.01107   0.01028   0.40161
   D61        1.58387   0.04449   0.00000   0.02371   0.02448   1.60835
   D62       -2.60492   0.03568   0.00000   0.01917   0.01990  -2.58503
   D63       -0.51053   0.02185   0.00000   0.01207   0.01279  -0.49774
   D64       -0.51053  -0.01964   0.00000  -0.00975  -0.01006  -0.52059
   D65        1.58387  -0.02845   0.00000  -0.01429  -0.01465   1.56922
   D66       -2.60492  -0.04228   0.00000  -0.02139  -0.02175  -2.62668
   D67       -2.60492   0.01910   0.00000   0.00915   0.00879  -2.59613
   D68       -0.51053   0.01028   0.00000   0.00462   0.00421  -0.50632
   D69        1.58387  -0.00354   0.00000  -0.00249  -0.00290   1.58096
   D70       -1.78740   0.01824   0.00000   0.00972   0.00976  -1.77764
   D71        1.35410   0.02394   0.00000   0.01283   0.01288   1.36698
   D72        0.30700   0.01457   0.00000   0.00743   0.00736   0.31436
   D73       -2.83469   0.02027   0.00000   0.01054   0.01048  -2.82420
   D74        2.40139  -0.00856   0.00000  -0.00363  -0.00361   2.39778
   D75       -0.74029  -0.00286   0.00000  -0.00052  -0.00049  -0.74078
   D76        2.16172  -0.00390   0.00000  -0.00198  -0.00198   2.15974
   D77       -2.02707  -0.00415   0.00000  -0.00211  -0.00211  -2.02918
   D78        0.06732  -0.00290   0.00000  -0.00146  -0.00146   0.06586
   D79       -2.02707   0.00501   0.00000   0.00254   0.00254  -2.02453
   D80        0.06732   0.00476   0.00000   0.00241   0.00241   0.06973
   D81        2.16172   0.00601   0.00000   0.00305   0.00305   2.16477
   D82        0.06732  -0.00101   0.00000  -0.00047  -0.00047   0.06685
   D83        2.16172  -0.00126   0.00000  -0.00060  -0.00060   2.16111
   D84       -2.02707  -0.00001   0.00000   0.00004   0.00004  -2.02703
   D85       -3.14112  -0.01668   0.00000  -0.00909  -0.00912   3.13294
   D86       -0.00091  -0.01712   0.00000  -0.00934  -0.00936  -0.01027
   D87        0.00056   0.01073   0.00000   0.00587   0.00586   0.00643
   D88        3.14078   0.01029   0.00000   0.00562   0.00562  -3.13679
   D89       -3.14124   0.01826   0.00000   0.00994   0.00990  -3.13134
   D90       -0.00010   0.01716   0.00000   0.00935   0.00932   0.00923
   D91        0.00026  -0.00915   0.00000  -0.00502  -0.00501  -0.00475
   D92        3.14140  -0.01026   0.00000  -0.00560  -0.00559   3.13581
   D93       -0.00099  -0.00506   0.00000  -0.00276  -0.00277  -0.00376
   D94        3.14093  -0.00295   0.00000  -0.00161  -0.00161   3.13931
   D95       -3.14120  -0.00461   0.00000  -0.00251  -0.00252   3.13946
   D96        0.00072  -0.00251   0.00000  -0.00136  -0.00137  -0.00066
   D97       -0.00066   0.00190   0.00000   0.00106   0.00105   0.00039
   D98        3.14116   0.00189   0.00000   0.00104   0.00104  -3.14099
   D99        3.14138   0.00301   0.00000   0.00164   0.00163  -3.14017
   D100       0.00001   0.00300   0.00000   0.00163   0.00162   0.00164
   D101       0.00060  -0.00220   0.00000  -0.00120  -0.00120  -0.00060
   D102      -3.14153   0.00135   0.00000   0.00073   0.00074  -3.14079
   D103      -3.14132  -0.00430   0.00000  -0.00235  -0.00235   3.13951
   D104      -0.00026  -0.00075   0.00000  -0.00041  -0.00042  -0.00068
   D105       0.00023   0.00378   0.00000   0.00205   0.00206   0.00228
   D106      -3.14083   0.00023   0.00000   0.00012   0.00012  -3.14071
   D107      -3.14158   0.00378   0.00000   0.00207   0.00206  -3.13952
   D108       0.00054   0.00023   0.00000   0.00013   0.00013   0.00067
   D109      -3.14112   0.00072   0.00000   0.00041   0.00038  -3.14074
   D110      -0.00091   0.00198   0.00000   0.00109   0.00107   0.00016
   D111       0.00056  -0.00498   0.00000  -0.00270  -0.00269  -0.00213
   D112       3.14078  -0.00372   0.00000  -0.00202  -0.00201   3.13877
   D113      -3.14124  -0.00114   0.00000  -0.00063  -0.00065   3.14130
   D114      -0.00010   0.00356   0.00000   0.00190   0.00189   0.00179
   D115       0.00026   0.00456   0.00000   0.00248   0.00247   0.00273
   D116       3.14140   0.00926   0.00000   0.00501   0.00501  -3.13677
   D117      -0.00099   0.00205   0.00000   0.00111   0.00111   0.00012
   D118       3.14093   0.00136   0.00000   0.00074   0.00074  -3.14151
   D119      -3.14120   0.00080   0.00000   0.00043   0.00043  -3.14077
   D120       0.00072   0.00011   0.00000   0.00006   0.00006   0.00077
   D121      -0.00066  -0.00122   0.00000  -0.00067  -0.00068  -0.00133
   D122       3.14116   0.00041   0.00000   0.00022   0.00021   3.14137
   D123       3.14138  -0.00592   0.00000  -0.00320  -0.00321   3.13818
   D124       0.00001  -0.00429   0.00000  -0.00232  -0.00232  -0.00230
   D125       0.00060   0.00128   0.00000   0.00069   0.00070   0.00129
   D126      -3.14153  -0.00088   0.00000  -0.00047  -0.00047   3.14118
   D127      -3.14132   0.00197   0.00000   0.00107   0.00107  -3.14025
   D128      -0.00026  -0.00019   0.00000  -0.00010  -0.00010  -0.00037
   D129       0.00023  -0.00170   0.00000  -0.00092  -0.00092  -0.00069
   D130      -3.14083   0.00046   0.00000   0.00025   0.00025  -3.14058
   D131      -3.14158  -0.00333   0.00000  -0.00180  -0.00181   3.13979
   D132       0.00054  -0.00118   0.00000  -0.00064  -0.00064  -0.00010
         Item               Value     Threshold  Converged?
 Maximum Force            0.401300     0.000450     NO 
 RMS     Force            0.046876     0.000300     NO 
[...]
 575,0.00000487,0.00000058,0.00000230,0.00000197,-0.00000267,0.00000361
 ,0.00000129,0.00000215,0.00000062,0.00000017,-0.00000317,0.00000039,-0
 .00000207,0.00000103,-0.00000042,0.00099365,0.00016288,-0.00088775,-0.
 00005757,-0.00034392,0.00026196,-0.00032132,0.00009988,-0.00004904,-0.
 00070995,-0.00001902,0.00014026,-0.00004208,0.00032905,0.00008592,-0.0
 0006198,-0.00005640,0.00001249,0.00000700,0.00002786,0.00001209,0.0000
 2572,-0.00003048,-0.00003165,-0.00002789,-0.00003352,0.00004654,0.0000
 0478,0.00000504,-0.00001622,-0.00000036,-0.00000302,-0.00000307,0.0000
 0924,0.00000382,0.00000628,0.00000024,0.00000019,0.00000169,-0.0000007
 4,-0.00000229,0.00000035,-0.00000247,0.00000623,-0.00000375,-0.0000007
 5,-0.00000110,-0.00000054,-0.00000169,-0.00000058,0.00000019,-0.000000
 17,-0.00000009,0.00000119,-0.00000110,0.00000206,0.00000167,-0.0000006
 5,-0.00000034,-0.00000024,-0.00000053,-0.00000004,-0.00000051,0.032075
 99,0.01367775,-0.03549004,-0.04845309,-0.03253515,-0.04747808,-0.00491
 472,0.00386501,0.05745846,0.08426533,0.01129640,-0.32851195,-0.0020540
 5,-0.00202074,-0.00046655,0.02635509,0.00221092,-0.14507276,-0.0032945
 3,-0.00309498,-0.00266272,0.00157187,0.07503674,0.70053882,0.00007036,
 0.00008700,-0.00014569,-0.00000466,0.00003672,0.00004454,0.00000516,-0
 .00002785,0.00000003,0.,0.00000363,0.00003786,-0.00000094,0.00000308,-
 0.00000595,0.00001291,-0.00001453,-0.00001829,0.00001058,0.00003815,-0
 .00001320,-0.00000815,-0.00001177,0.00000587,0.00000054,0.00000132,-0.
 00000270,-0.00001356,-0.00003864,0.00000174,-0.00003932,-0.00033870,-0
 .00018765,0.00001861,0.00000418,0.00001117,0.00000523,-0.00000110,-0.0
 0000064,-0.00000627,-0.00000442,0.00000089,-0.00000354,0.00001483,-0.0
 0001731,-0.00000341,-0.00000424,0.00000555,-0.00000227,0.00000061,-0.0
 0000188,-0.00000035,-0.00000155,0.00000370,-0.00000135,-0.00000144,-0.
 00000150,0.00000119,-0.00000382,0.00000085,0.00000020,0.00000153,-0.00
 000028,-0.00034376,0.00022623,0.00104019,-0.00000251,-0.00000929,-0.00
 006858,-0.00023278,-0.00009826,-0.00017257,-0.00005614,0.00001281,0.00
 012631,0.00001701,-0.00000598,-0.00002814,0.00001489,-0.00002523,-0.00
 001933,0.00001727,-0.00000694,-0.00000788,0.00001546,-0.00001524,-0.00
 002156,-0.00002443,-0.00000715,0.00000675,-0.00000623,0.00000232,-0.00
 000386,-0.00000617,0.00000105,0.00000385,0.00000971,0.00000330,0.00000
 028,0.00000126,-0.00000083,-0.00000418,-0.00000385,-0.00000236,0.00000
 258,-0.00000400,0.00000352,0.00000198,-0.00000008,-0.00000066,-0.00000
 042,-0.00000058,0.00000011,0.00000064,-0.00000030,-0.00000075,-0.00000
 102,0.00000085,0.00000146,0.00000025,-0.00000151,-0.00000168,-0.000000
 95,-0.00000056,-0.00000139,-0.00000216,0.00112450,-0.00392983,-0.00324
 128,-0.01254377,-0.00713473,0.00781284,0.00032389,0.00026815,-0.000506
 57,-0.25822048,-0.11172520,0.07063746,-0.00006494,0.00204176,-0.000351
 83,0.00279959,-0.00209067,0.00181427,-0.00035852,0.00052497,-0.0000247
 0,-0.00317996,-0.00305642,0.00019974,0.27108502,0.00004596,0.00001780,
 0.00002327,-0.00002708,-0.00003654,-0.00001492,-0.00000433,-0.00002310
 ,0.00000185,-0.00000375,-0.00001250,0.00001034,0.00000069,0.00000144,0
 .00000072,0.00000617,-0.00000924,-0.00001527,0.00000313,0.00002320,-0.
 00000977,-0.00000171,-0.00000628,0.00000232,0.00000095,-0.00000060,0.0
 0000121,-0.00000015,-0.00002442,0.00000262,0.00005434,-0.00019459,-0.0
 0019201,0.00000469,0.00000213,0.00000435,0.00000303,-0.00000169,-0.000
 00017,-0.00000212,-0.00000157,-0.00000008,-0.00000911,0.00000813,-0.00
 001089,0.00000042,-0.00000288,0.00000273,0.00000001,0.00000107,0.00000
 150,-0.00000076,-0.00000157,0.00000358,0.00000062,0.00000006,-0.000000
 51,0.00000010,-0.00000290,0.00000053,0.00000023,0.00000058,-0.00000203
 ,-0.00050896,0.00021750,0.00053094,0.00001398,-0.00000541,0.00000509,-
 0.00016142,-0.00020194,-0.00021500,-0.00028914,-0.00000390,0.00005760,
 0.00008200,0.00009194,0.00006743,0.00001686,-0.00001752,-0.00000162,0.
 00003052,0.00001068,0.00001213,0.00001238,-0.00001735,-0.00002460,-0.0
 0002001,-0.00000571,0.00001245,0.00000582,0.00000174,0.00000947,-0.000
 00211,0.00000123,0.00000279,0.00000510,-0.00000053,-0.00000028,0.00000
 102,-0.00000096,-0.00000161,-0.00000234,-0.00000177,0.00000272,-0.0000
 0326,0.00000371,0.00000107,0.00000028,-0.00000051,-0.00000007,-0.00000
 010,0.00000059,-0.00000022,0.00000057,-0.00000096,-0.00000094,0.000000
 12,0.00000101,-0.00000130,-0.00000051,-0.00000013,-0.00000048,-0.00000
 069,-0.00000032,-0.00000104,-0.00332141,0.00511613,-0.00305077,-0.0107
 4325,-0.00287050,0.00509813,0.00041212,-0.00008084,-0.00030498,-0.1117
 8023,-0.09247936,0.03293715,0.00213002,-0.00271782,0.00034998,-0.00230
 586,0.00568043,-0.00062881,0.00047761,-0.00101592,0.00022741,0.0005206
 2,0.00269925,-0.00098011,0.12357465,0.08836519,0.00001499,0.00003313,-
 0.00007021,0.00000441,-0.00000022,0.00002327,0.00000365,-0.00000635,0.
 00000553,0.00000461,-0.00000383,0.00000789,0.00000294,0.00000644,0.000
 00353,-0.00000425,0.00000336,-0.00000498,-0.00000109,-0.00000114,-0.00
 000775,-0.00000269,-0.00000124,0.00000158,0.00000261,-0.00000382,0.000
 00199,0.00000049,0.00000177,0.00000432,0.00002644,-0.00013690,-0.00006
 538,-0.00000144,0.00000076,-0.00000043,0.00000023,0.00000016,-0.000000
 22,0.00000035,-0.00000024,-0.00000006,0.00000004,-0.00000175,-0.000000
 17,-0.00000034,-0.00000005,-0.00000003,0.00000078,-0.00000034,-0.00000
 009,0.00000017,-0.00000017,0.00000016,0.,0.00000024,0.00000027,-0.0000
 0005,0.00000043,-0.00000037,-0.00000006,0.00000002,0.00000039,-0.00079
 354,-0.00007139,0.00074954,0.00003210,0.00001761,-0.00000478,-0.000232
 45,-0.00011080,-0.00019350,-0.00002486,0.00000246,0.00004954,0.0000216
 3,-0.00001751,-0.00000446,0.00001246,-0.00000124,-0.00000776,0.0000153
 0,-0.00002077,0.00000663,0.00000313,-0.00000869,-0.00000919,-0.0000201
 4,0.00001413,-0.00000791,0.00000242,0.00001093,0.00000176,0.00000045,-
 0.00000017,-0.00000036,0.00000066,0.00000033,0.00000015,0.00000001,0.0
 0000031,0.00000031,-0.00000106,0.00000002,0.00000061,-0.00000022,0.000
 00059,0.00000017,-0.00000024,0.,-0.00000011,0.00000012,-0.00000014,-0.
 00000012,0.00000012,0.00000016,-0.00000039,0.00000029,-0.00000038,-0.0
 0000016,0.00000030,0.00000014,0.00000014,-0.00000006,-0.00000021,0.000
 00020,-0.00190780,-0.00247509,-0.00281665,-0.01984621,-0.00982207,0.01
 049025,-0.00047487,-0.00032772,-0.00107924,0.07069112,0.03257175,-0.08
 376582,0.00018475,0.00069627,0.00100332,0.00058975,-0.00130043,-0.0055
 8362,0.00000298,0.00018874,0.00020355,0.02770870,0.01424386,-0.0038478
 0,-0.07686024,-0.03444288,0.08406898,0.00005070,-0.00000013,0.00005200
 ,-0.00001415,-0.00004912,-0.00001748,-0.00000658,-0.00000499,0.0000086
 6,0.00001532,-0.00002688,-0.00001798,-0.00000264,0.00000807,0.00000345
 ,-0.00002047,0.00001498,-0.00000121,0.00000296,-0.00001556,-0.00000436
 ,-0.00001145,-0.00000283,0.00000350,0.00000507,-0.00000608,-0.00000134
 ,-0.00000834,0.00001795,0.00000835,0.00001555,-0.00011894,-0.00004159,
 -0.00000167,0.00000068,-0.00000287,-0.00000070,0.00000138,-0.00000114,
 0.00000055,-0.00000081,0.00000064,0.00000990,-0.00000414,0.00000737,-0
 .00000185,0.00000059,-0.00000120,-0.00000035,-0.00000120,-0.00000202,-
 0.00000037,0.00000042,-0.00000192,-0.00000053,-0.00000021,0.00000009,0
 .00000003,0.00000245,-0.00000040,-0.00000028,0.00000017,0.00000175,0.0
 0057558,0.00037009,-0.00065223,-0.00014675,-0.00003088,-0.00020101,-0.
 00001732,-0.00000053,0.00002955,-0.00010380,-0.00000799,0.00002753,0.0
 0002721,0.00002468,0.00001661,0.00000591,-0.00000213,0.00000305,0.0000
 1495,0.00000875,0.00000432,0.00000105,-0.00000555,-0.00000269,-0.00000
 575,0.00000009,-0.00000111,-0.00000053,0.00000458,0.00000258,0.0000007
 7,-0.00000146,-0.00000281,0.00000052,0.00000196,0.00000177,-0.00000049
 ,0.00000111,0.00000129,-0.00000030,0.00000014,-0.00000044,0.00000085,0
 .00000013,-0.00000069,-0.00000056,0.00000004,-0.00000017,-0.00000016,-
 0.00000081,0.00000010,-0.00000014,0.00000061,0.00000045,-0.00000013,-0
 .00000026,0.00000079,0.00000036,0.00000004,0.00000030,0.00000010,-0.00
 000004,0.00000050,-0.00064805,-0.00466639,-0.00204351,-0.00093778,-0.0
 0039315,-0.00052262,0.00891898,0.00067227,-0.01983634,-0.00298223,-0.0
 0523085,0.00062970,-0.00012094,0.00062667,0.00001162,-0.07469774,-0.01
 033525,0.07215380,0.00002043,0.00207893,0.00015278,-0.00256086,0.00118
 538,0.02783747,-0.00019466,-0.00011335,0.00153489,0.07266870,-0.000015
 07,0.00008805,-0.00022965,0.00005014,0.00006206,0.00009606,0.00000865,
 -0.00000843,0.00001191,0.00001530,-0.00001311,0.00001920,0.00001162,0.
 00000609,0.00001130,0.00000099,0.00001129,-0.00001064,-0.00002710,-0.0
 0000073,-0.00003555,-0.00000376,-0.00000251,0.00000499,0.00001244,-0.0
 0001590,0.00001152,0.00001808,0.00000211,0.00002627,-0.00007419,-0.000
 17052,0.00002441,-0.00001482,0.00000309,-0.00000986,0.00000085,-0.0000
 0102,0.00000069,0.00000288,0.00000125,0.00000091,-0.00001287,-0.000003
 71,-0.00000842,-0.00000021,-0.00000124,0.00000141,0.00000758,-0.000000
 17,0.00000319,0.00000237,-0.00000099,0.00000047,0.00000201,0.00000323,
 0.00000203,-0.00000080,-0.00000075,0.00000003,-0.00000174,0.00000014,-
 0.00000028,0.00023508,0.00043386,-0.00055689,-0.00015728,-0.00018523,-
 0.00019961,0.00002571,0.00000341,0.00002285,0.00004305,0.00001472,0.00
 002300,-0.00000819,-0.00004121,-0.00003523,0.00000810,-0.00001290,-0.0
 0001003,0.00000359,-0.00001034,-0.00000577,0.00000351,-0.00000454,-0.0
 0000318,-0.00000740,-0.00000638,0.00000123,0.00000053,0.00000324,0.000
 00202,0.00000463,-0.00000215,-0.00000364,0.00000117,0.00000005,0.00000
 357,-0.00000058,0.00000008,0.00000448,0.00000112,-0.00000077,-0.000000
 47,-0.00000015,0.00000216,-0.00000326,0.,-0.00000033,-0.00000010,-0.00
 000085,-0.00000004,-0.00000069,0.00000030,0.00000026,0.00000143,-0.000
 00104,0.00000061,0.00000050,0.00000030,0.00000104,0.00000040,-0.000000
 26,0.00000079,0.00000065,-0.00469430,0.00455576,-0.00182058,-0.0003580
 1,-0.00045353,0.00000474,0.00445028,0.00278107,-0.01329465,-0.00506315
 ,0.00426664,-0.00050244,0.00066829,-0.00093689,0.00012716,-0.00998441,
 -0.04115376,-0.00116198,0.00194874,-0.00277439,0.00077584,-0.00290447,
 0.00290911,0.01386399,-0.00028585,0.00026280,0.00069828,0.01396452,0.0
 3310832,0.00009446,0.00010495,-0.00015178,-0.00000487,0.00000635,0.000
 05814,0.00000097,-0.00002916,0.00000839,0.00000850,-0.00002885,0.00002
 674,0.00000306,0.00000458,0.00000257,0.00000269,0.00000016,-0.00002815
 ,-0.00000800,0.00002347,-0.00005039,-0.00002120,-0.00001560,0.00001459
 ,0.00001414,-0.00001326,0.00000583,-0.00000688,-0.00002289,0.00003566,
 -0.00010243,-0.00041663,-0.00014915,0.00000651,0.00000657,-0.00000288,
 0.00000610,-0.00000028,-0.00000050,-0.00000434,-0.00000481,0.00000353,
 -0.00000706,0.00001024,-0.00002431,-0.00000702,-0.00000518,0.00000772,
 0.00000486,0.00000026,-0.00000050,0.00000218,-0.00000186,0.00000168,0.
 00000021,0.00000162,0.00000038,0.00000081,-0.00000345,0.00000111,-0.00
 000253,0.00000186,0.00000147,0.00087635,0.00081740,-0.00037506,-0.0002
 0977,-0.00013355,-0.00029309,-0.00005301,-0.00003549,0.00000104,-0.000
 13008,0.00000812,0.00011351,0.00001860,0.00003677,-0.00000575,0.000014
 35,-0.00003773,-0.00001544,0.00002214,0.00001780,-0.00000495,0.0000126
 2,-0.00000978,-0.00001192,-0.00000822,-0.00002335,0.00001447,-0.000011
 40,-0.00000272,-0.00000255,-0.00000183,-0.00000354,-0.00000322,0.00001
 082,0.00000598,0.00000662,0.00000058,0.00000038,0.00000138,-0.00000078
 ,-0.00000283,-0.00000007,-0.00000258,0.00000475,-0.00000281,-0.0000005
 8,-0.00000108,-0.00000063,-0.00000238,-0.00000092,0.00000064,-0.000000
 69,-0.00000005,0.00000180,-0.00000121,0.00000228,0.00000263,-0.0000013
 1,-0.00000098,-0.00000055,-0.00000046,-0.00000011,-0.00000097,-0.00318
 680,-0.00291818,-0.00048471,-0.00048915,-0.00013414,0.00055180,0.00789
 341,0.00149141,-0.01667189,0.00185286,0.00019701,0.00161251,-0.0000185
 4,0.00016478,-0.00011420,0.07220368,-0.00104077,-0.31839476,-0.0004040
 0,0.00047122,0.00098644,0.00013560,-0.00090934,-0.00469710,-0.00001815
 ,-0.00009704,-0.00034608,-0.07842734,0.00188798,0.33758259,0.00002521,
 -0.00000118,0.00003569,-0.00003307,0.00002009,-0.00001305,0.00000144,-
 0.00001086,-0.00001934,-0.00002728,0.00002245,0.00003099,-0.00000607,-
 0.00001118,-0.00001076,0.00003550,-0.00003220,-0.00002939,0.00001601,0
 .00003006,-0.00002580,-0.00000670,-0.00000759,0.00000390,0.00000053,0.
 00000316,-0.00000274,-0.00000897,-0.00003852,0.00000633,0.00004237,0.0
 0000182,0.00002046,0.00001615,0.00000296,0.00000762,0.00000464,-0.0000
 0056,0.00000004,-0.00000549,-0.00000394,0.00000117,-0.00000463,0.00001
 192,-0.00001864,-0.00000415,-0.00000404,0.00000579,-0.00000084,0.00000
 090,-0.00000142,0.00000004,-0.00000158,0.00000345,-0.00000088,-0.00000
 077,-0.00000108,0.00000126,-0.00000372,0.00000055,-0.00000033,0.000001
 18,0.00000020,-0.00006856,0.00060385,-0.00002266,-0.00000372,-0.000022
 02,-0.00012994,-0.00001323,-0.00002636,0.00003337,-0.00001040,-0.00000
 281,0.00003447,-0.00000393,0.00000650,-0.00001286,0.00000218,-0.000008
 76,-0.00000539,0.00001267,0.00000086,-0.00000103,0.00000531,-0.0000047
 4,-0.00000529,-0.00000538,-0.00001062,-0.00000250,-0.00000635,0.000004
 05,-0.00000179,-0.00000493,0.00000041,0.00000314,0.00000587,0.00000230
 ,0.00000010,0.00000133,-0.00000056,-0.00000327,-0.00000167,-0.00000142
 ,0.00000110,-0.00000255,0.00000135,0.00000156,-0.00000003,-0.00000052,
 -0.00000025,-0.00000074,0.00000003,0.00000068,-0.00000047,-0.00000066,
 -0.00000050,0.00000022,0.00000100,0.00000048,-0.00000117,-0.00000130,-
 0.00000084,-0.00000024,-0.00000069,-0.00000137,-0.00052452,0.00020062,
 0.00071488,0.00182548,-0.00262595,0.00227589,-0.00200246,-0.00444235,0
 .00348488,0.00849912,0.00426643,0.00690224,0.00037839,0.00008518,0.000
 42185,-0.01203659,-0.01043284,-0.02079093,-0.00073622,-0.00065563,-0.0
 0104326,-0.15674379,-0.07988735,-0.11337819,-0.00020519,0.00189767,-0.
 00069130,0.00015211,0.00212469,-0.00005291,0.16144471,0.00001964,0.000
 03711,-0.00004884,0.00000475,0.00001535,0.00001049,-0.00000165,-0.0000
 1600,-0.00000452,-0.00000597,0.00001494,0.00001441,0.00000254,-0.00001
 075,-0.00000252,0.00001732,-0.00000549,-0.00000634,-0.00000349,0.00002
 308,-0.00001111,-0.00000075,-0.00000487,0.00000226,0.00000193,0.000000
 37,0.00000182,0.00000204,-0.00002205,0.00000659,-0.00010624,-0.0001835
 8,-0.00016918,0.00000284,0.00000170,0.00000119,0.00000312,-0.00000142,
 0.00000051,-0.00000189,-0.00000120,0.00000050,-0.00001065,0.00000813,-
 0.00001402,-0.00000058,-0.00000283,0.00000351,0.00000176,0.00000143,0.
 00000181,0.00000040,-0.00000130,0.00000256,0.00000092,0.00000078,0.,0.
 00000006,-0.00000338,0.00000078,-0.00000061,0.00000059,-0.00000148,0.0
 0041394,-0.00080472,0.00002443,-0.00002194,0.00000035,0.00005727,0.000
 08657,0.00004224,-0.00000650,-0.00007214,0.00000994,0.00003944,0.00001
 196,0.00000957,0.00001527,0.00000776,-0.00001503,-0.00000967,0.0000034
 0,-0.00000109,0.00000344,0.00000459,0.00000520,-0.00000598,0.00000098,
 0.00000774,0.00000688,0.00000159,-0.00000324,0.00000165,-0.00000129,0.
 00000013,0.00000144,0.00000406,0.00000015,0.00000080,0.00000078,-0.000
 00087,-0.00000049,-0.00000063,-0.00000141,0.00000106,-0.00000208,0.000
 00267,-0.00000011,0.00000023,-0.00000057,-0.00000008,-0.00000061,0.000
 00044,-0.00000007,0.00000017,-0.00000074,-0.00000005,-0.00000032,0.000
 00107,-0.00000027,-0.00000061,-0.00000012,-0.00000044,-0.00000044,0.00
 000005,-0.00000074,0.00033942,-0.00048411,0.00055919,-0.00250026,0.005
 88380,-0.00033050,-0.00466713,0.00491835,0.00091357,0.00057231,0.00275
 292,0.00153060,-0.00011458,0.00023816,0.00008638,-0.00654982,-0.002621
 13,-0.01013000,-0.00046946,-0.00001210,-0.00056945,-0.07995114,-0.0888
 8735,-0.08103075,0.00199514,-0.00276725,0.00026367,0.00203282,-0.00271
 967,0.00062761,0.08895126,0.08459602,0.00003308,0.00002727,-0.00003913
 ,-0.00000732,0.00000288,0.00000763,-0.00000126,-0.00001099,0.00000068,
 0.00000673,-0.00000933,0.00001335,-0.00000050,0.00000497,-0.00000047,-
 0.00000338,-0.00000473,-0.00000624,0.00000278,0.00001711,-0.00000411,-
 0.00000485,-0.00000626,0.00000369,0.00000083,0.00000015,-0.00000095,-0
 .00000653,-0.00001678,0.00000313,-0.00001805,-0.00006780,-0.00001408,0
 .00000814,0.00000237,0.00000329,0.00000260,-0.00000075,-0.00000033,-0.
 00000309,-0.00000214,0.00000109,-0.00000207,0.00000860,-0.00000939,-0.
 00000198,-0.00000228,0.00000314,-0.00000063,0.00000041,-0.00000066,0.0
 0000006,-0.00000066,0.00000126,-0.00000040,-0.00000045,-0.00000065,0.0
 0000051,-0.00000218,0.00000090,-0.00000032,0.00000091,-0.00000022,-0.0
 0009118,0.00019134,0.00017258,0.00003288,-0.00000217,0.00001758,-0.000
 08931,-0.00005178,-0.00001398,0.00002068,0.00000929,0.00002766,-0.0000
 2342,0.00002887,-0.00001696,-0.00001212,-0.00002520,-0.00000768,-0.000
 01264,0.00003705,-0.00001399,0.00000817,-0.00001312,-0.00000705,-0.000
 00036,-0.00003661,0.00002913,-0.00000689,-0.00001995,-0.00000864,-0.00
 000281,-0.00000027,0.00000062,0.00000540,0.00000225,0.00000167,0.00000
 037,-0.00000051,-0.00000124,-0.00000068,-0.00000163,0.00000049,-0.0000
 0176,0.00000196,-0.00000037,0.00000002,-0.00000051,-0.00000021,-0.0000
 0079,-0.00000007,0.00000035,-0.00000026,-0.00000033,0.00000045,-0.0000
 0022,0.00000151,0.00000086,-0.00000107,-0.00000089,-0.00000052,-0.0000
 0034,-0.00000039,-0.00000119,0.00075996,0.00044211,-0.00041381,0.00345
 875,0.00038019,-0.00441963,0.00226900,0.00028779,0.00037009,-0.0207432
 9,-0.01353719,-0.01579095,-0.00106144,-0.00070519,-0.00098331,0.006930
 20,0.00475754,0.01011860,0.00043815,0.00022979,0.00038662,-0.11341380,
 -0.08096664,-0.18934282,-0.00003084,0.00062802,0.00119353,-0.00071042,
 0.00026041,0.00079020,0.12227569,0.08816402,0.19794999\\-0.00000016,-0
 .00000053,-0.00000003,0.00000035,0.00000052,-0.00000057,-0.00000007,0.
 00000012,-0.00000029,0.00000089,0.00000116,0.00000085,0.,-0.00000052,0
 .00000074,-0.00000020,-0.00000069,0.00000074,0.00000091,-0.00000054,0.
 00000155,0.00000140,-0.00000119,0.00000150,0.00000207,-0.00000005,0.00
 000012,0.00000216,-0.00000156,-0.00000010,-0.00000133,0.00000064,-0.00
 000084,0.00000164,-0.00000078,0.00000072,0.00000047,-0.00000120,0.0000
 0185,0.00000119,-0.00000138,0.00000213,0.00000241,-0.00000088,0.000000
 56,0.00000273,-0.00000054,0.00000098,0.00000280,-0.00000007,-0.0000001
 3,0.00000206,0.00000017,0.00000053,0.00000245,-0.00000095,0.00000071,0
 .00000335,-0.00000039,0.00000009,0.00000209,0.00000026,-0.00000025,-0.
 00000157,-0.00000021,0.00000008,-0.00000214,0.00000021,-0.00000057,-0.
 00000149,-0.00000027,0.00000071,-0.00000037,0.00000098,-0.00000151,-0.
 00000126,0.00000116,-0.00000164,-0.00000075,0.00000091,-0.00000126,-0.
 00000251,0.00000084,-0.00000086,-0.00000249,0.00000131,-0.00000195,-0.
 00000295,0.00000099,-0.00000150,-0.00000281,0.00000076,-0.00000096,0.0
 0000034,-0.00000129,0.00000175,-0.00000047,-0.00000010,0.00000183,0.00
 000027,-0.00000150,0.00000103,-0.00000072,-0.00000085,0.00000009,-0.00
 000028,0.00000014,-0.00000028,0.00000011,-0.00000143,0.00000214,0.0000
 0130,-0.00000149,0.00000237,-0.00000025,-0.00000052,0.00000104,-0.0000
 0113,-0.00000003,0.00000017,0.00000026,-0.00000148,0.00000221,-0.00000
 094,-0.00000064,0.00000115,-0.00000061,0.00000127,-0.00000166,-0.00000
 245,0.00000068,-0.00000159,0.00000003,0.00000033,0.00000010,-0.0000007
 8,0.00000115,-0.00000134,-0.00000190,0.00000160,-0.00000131,-0.0000006
 0,0.00000026,-0.00000106,0.00000002,-0.00000004,-0.00000019,-0.0000000
 3,0.00000187,-0.00000214,-0.00000167,0.00000182,-0.00000267,0.00000081
 ,0.00000053,-0.00000093,-0.00000015,0.00000142,-0.00000210\\\@
 The archive entry for this job was punched.


 MEMORIES ARE LIKE AN ENGLISH GRAMMER LESSON -
 PRESENT TENSE, AND PAST PERFECT.
 Job cpu time:       0 days  2 hours  1 minutes 25.8 seconds.
 Elapsed time:       0 days  0 hours 15 minutes 11.2 seconds.
 File lengths (MBytes):  RWF=   1232 Int=      0 D2E=      0 Chk=     29 Scr=      1
 Normal termination of Gaussian 16 at Mon Oct 25 11:37:37 2021.
