 Entering Gaussian System, Link 0=/home/rong/g16/g16
 Input=/home/rong/g16/092821/cyclohexaneNCHCH3.gjf
 Output=/home/rong/g16/092821/cyclohexaneNCHCH3.log
 Initial command:
 /home/rong/g16/l1.exe "/tmp/Gau-156980.inp" -scrdir="/tmp/"
 Default is to use a total of   8 processors:
                                8 via shared-memory
                                1 via Linda
 Entering Link 1 = /home/rong/g16/l1.exe PID=    156982.
  
 Copyright (c) 1988-2019, Gaussian, Inc.  All Rights Reserved.
  
 This is part of the Gaussian(R) 16 program.  It is based on
 the Gaussian(R) 09 system (copyright 2009, Gaussian, Inc.),
 the Gaussian(R) 03 system (copyright 2003, Gaussian, Inc.),
 the Gaussian(R) 98 system (copyright 1998, Gaussian, Inc.),
 the Gaussian(R) 94 system (copyright 1995, Gaussian, Inc.),
 the Gaussian 92(TM) system (copyright 1992, Gaussian, Inc.),
 the Gaussian 90(TM) system (copyright 1990, Gaussian, Inc.),
 the Gaussian 88(TM) system (copyright 1988, Gaussian, Inc.),
 the Gaussian 86(TM) system (copyright 1986, Carnegie Mellon
 University), and the Gaussian 82(TM) system (copyright 1983,
 Carnegie Mellon University). Gaussian is a federally registered
 trademark of Gaussian, Inc.
  
 This software contains proprietary and confidential information,
 including trade secrets, belonging to Gaussian, Inc.
  
 This software is provided under written license and may be
 used, copied, transmitted, or stored only in accord with that
 written license.
  
 The following legend is applicable only to US Government
 contracts under FAR:
  
                    RESTRICTED RIGHTS LEGEND
  
 Use, reproduction and disclosure by the US Government is
 subject to restrictions as set forth in subparagraphs (a)
 and (c) of the Commercial Computer Software - Restricted
 Rights clause in FAR 52.227-19.
  
 Gaussian, Inc.
 340 Quinnipiac St., Bldg. 40, Wallingford CT 06492
  
  
 ---------------------------------------------------------------
 Warning -- This program may not be used in any manner that
 competes with the business of Gaussian, Inc. or will provide
 assistance to any competitor of Gaussian, Inc.  The licensee
 of this program is prohibited from giving any competitor of
 Gaussian, Inc. access to this program.  By using this program,
 the user acknowledges that Gaussian, Inc. is engaged in the
 business of creating and licensing software in the field of
 computational chemistry and represents and warrants to the
 licensee that it is not a competitor of Gaussian, Inc. and that
 it will not use this program in any manner prohibited above.
 ---------------------------------------------------------------
  

 Cite this work as:
 Gaussian 16, Revision C.01,
 M. J. Frisch, G. W. Trucks, H. B. Schlegel, G. E. Scuseria, 
 M. A. Robb, J. R. Cheeseman, G. Scalmani, V. Barone, 
 G. A. Petersson, H. Nakatsuji, X. Li, M. Caricato, A. V. Marenich, 
 J. Bloino, B. G. Janesko, R. Gomperts, B. Mennucci, H. P. Hratchian, 
 J. V. Ortiz, A. F. Izmaylov, J. L. Sonnenberg, D. Williams-Young, 
 F. Ding, F. Lipparini, F. Egidi, J. Goings, B. Peng, A. Petrone, 
 T. Henderson, D. Ranasinghe, V. G. Zakrzewski, J. Gao, N. Rega, 
 G. Zheng, W. Liang, M. Hada, M. Ehara, K. Toyota, R. Fukuda, 
 J. Hasegawa, M. Ishida, T. Nakajima, Y. Honda, O. Kitao, H. Nakai, 
 T. Vreven, K. Throssell, J. A. Montgomery, Jr., J. E. Peralta, 
 F. Ogliaro, M. J. Bearpark, J. J. Heyd, E. N. Brothers, K. N. Kudin, 
 V. N. Staroverov, T. A. Keith, R. Kobayashi, J. Normand, 
 K. Raghavachari, A. P. Rendell, J. C. Burant, S. S. Iyengar, 
 J. Tomasi, M. Cossi, J. M. Millam, M. Klene, C. Adamo, R. Cammi, 
 J. W. Ochterski, R. L. Martin, K. Morokuma, O. Farkas, 
 J. B. Foresman, and D. J. Fox, Gaussian, Inc., Wallingford CT, 2019.
 
 ******************************************
 Gaussian 16:  ES64L-G16RevC.01  3-Jul-2019
                29-Sep-2021 
 ******************************************
 %mem=15GB
 %chk=cyclohexaneNCHCH3.chk
 %nprocshared=8
 Will use up to    8 processors via shared memory.
 ----------------------------------------------------
 # opt freq b3lyp/6-31g(d) scrf=(smd,solvent=toluene)
 ----------------------------------------------------
 1/18=20,19=15,26=3,38=1/1,3;
 2/9=110,12=2,17=6,18=5,40=1/2;
 3/5=1,6=6,7=1,11=2,25=1,30=1,70=32201,71=1,72=13,74=-5/1,2,3;
 4//1;
 5/5=2,38=5,53=13/2;
 6/7=2,8=2,9=2,10=2,28=1/1;
 7//1,2,3,16;
 1/18=20,19=15,26=3/3(2);
 2/9=110/2;
 99//99;
 2/9=110/2;
 3/5=1,6=6,7=1,11=2,25=1,30=1,70=32205,71=1,72=13,74=-5/1,2,3;
 4/5=5,16=3,69=1/1;
 5/5=2,38=5,53=13/2;
 7//1,2,3,16;
 1/18=20,19=15,26=3/3(-5);
 2/9=110/2;
 6/7=2,8=2,9=2,10=2,19=2,28=1/1;
 99/9=1/99;
 -----------------
 cyclohexaneNCHCH3
 -----------------
 Symbolic Z-matrix:
 Charge =  0 Multiplicity = 1
 C                    -2.28763  -1.64635   0.00308 
 C                    -0.77252  -1.64635   0.00308 
 C                    -0.22059  -0.23527   0.00308 
 C                    -0.77025   0.56926   1.16374 
 C                    -2.28538   0.56992   1.16325 
 C                    -2.83818  -0.8407    1.16196 
 H                     0.89801  -0.26926   0.06579 
 H                    -0.39997  -2.19199   0.90964 
 H                    -2.66031  -1.21332  -0.96231 
 H                    -0.39772   0.13442   2.12835 
 H                    -0.39423   1.6234    1.10175 
 H                    -2.6607    1.11935   2.06537 
 H                    -2.65723   1.11653   0.25693 
 H                    -2.57217  -1.34642   2.12727 
 H                    -3.95672  -0.80564   1.09702 
 H                    -0.48921   0.27036  -0.96147 
 N                    -2.78019  -3.02887   0.08636 
 N                    -0.28038  -2.3674   -1.17963 
 C                    -3.50578  -3.51554  -0.86761 
 H                    -4.12927  -2.87182  -1.45223 
 C                     0.9595   -2.26061  -1.53272 
 H                     1.21859  -1.70058  -2.40687 
 C                    -3.47212  -5.02659  -1.16289 
 H                    -4.47224  -5.40509  -1.20021 
 H                    -2.9915   -5.19551  -2.10383 
 H                    -2.92922  -5.52907  -0.3898 
 C                     2.06395  -2.93673  -0.69926 
 H                     2.78835  -3.37353  -1.35452 
 H                     2.53931  -2.20673  -0.07795 
 H                     1.63157  -3.69972  -0.08623 
 

 GradGradGradGradGradGradGradGradGradGradGradGradGradGradGradGradGradGrad
 Berny optimization.
 Initialization pass.
                           ----------------------------
                           !    Initial Parameters    !
                           ! (Angstroms and Degrees)  !
 --------------------------                            --------------------------
 ! Name  Definition              Value          Derivative Info.                !
 --------------------------------------------------------------------------------
 ! R1    R(1,2)                  1.5151         estimate D2E/DX2                !
 ! R2    R(1,6)                  1.515          estimate D2E/DX2                !
 ! R3    R(1,9)                  1.1218         estimate D2E/DX2                !
 ! R4    R(1,17)                 1.47           estimate D2E/DX2                !
 ! R5    R(2,3)                  1.5152         estimate D2E/DX2                !
 ! R6    R(2,8)                  1.1218         estimate D2E/DX2                !
 ! R7    R(2,18)                 1.47           estimate D2E/DX2                !
 ! R8    R(3,4)                  1.5154         estimate D2E/DX2                !
 ! R9    R(3,7)                  1.1209         estimate D2E/DX2                !
 ! R10   R(3,16)                 1.1217         estimate D2E/DX2                !
 ! R11   R(4,5)                  1.5151         estimate D2E/DX2                !
 ! R12   R(4,10)                 1.1218         estimate D2E/DX2                !
 ! R13   R(4,11)                 1.1209         estimate D2E/DX2                !
 ! R14   R(5,6)                  1.5151         estimate D2E/DX2                !
 ! R15   R(5,12)                 1.121          estimate D2E/DX2                !
 ! R16   R(5,13)                 1.1218         estimate D2E/DX2                !
 ! R17   R(6,14)                 1.1218         estimate D2E/DX2                !
 ! R18   R(6,15)                 1.121          estimate D2E/DX2                !
 ! R19   R(17,19)                1.2936         estimate D2E/DX2                !
 ! R20   R(18,21)                1.2936         estimate D2E/DX2                !
 ! R21   R(19,20)                1.07           estimate D2E/DX2                !
 ! R22   R(19,23)                1.54           estimate D2E/DX2                !
 ! R23   R(21,22)                1.07           estimate D2E/DX2                !
 ! R24   R(21,27)                1.54           estimate D2E/DX2                !
 ! R25   R(23,24)                1.07           estimate D2E/DX2                !
 ! R26   R(23,25)                1.07           estimate D2E/DX2                !
 ! R27   R(23,26)                1.07           estimate D2E/DX2                !
 ! R28   R(27,28)                1.07           estimate D2E/DX2                !
 ! R29   R(27,29)                1.07           estimate D2E/DX2                !
 ! R30   R(27,30)                1.07           estimate D2E/DX2                !
 ! A1    A(2,1,6)              111.3094         estimate D2E/DX2                !
 ! A2    A(2,1,9)              109.4042         estimate D2E/DX2                !
 ! A3    A(2,1,17)             109.5772         estimate D2E/DX2                !
 ! A4    A(6,1,9)              109.4074         estimate D2E/DX2                !
 ! A5    A(6,1,17)             109.5749         estimate D2E/DX2                !
 ! A6    A(9,1,17)             107.4863         estimate D2E/DX2                !
 ! A7    A(1,2,3)              111.3625         estimate D2E/DX2                !
 ! A8    A(1,2,8)              109.3968         estimate D2E/DX2                !
 ! A9    A(1,2,18)             109.5595         estimate D2E/DX2                !
 ! A10   A(3,2,8)              109.3908         estimate D2E/DX2                !
 ! A11   A(3,2,18)             109.5638         estimate D2E/DX2                !
 ! A12   A(8,2,18)             107.4839         estimate D2E/DX2                !
 ! A13   A(2,3,4)              111.2413         estimate D2E/DX2                !
 ! A14   A(2,3,7)              109.59           estimate D2E/DX2                !
 ! A15   A(2,3,16)             109.4252         estimate D2E/DX2                !
 ! A16   A(4,3,7)              109.586          estimate D2E/DX2                !
 ! A17   A(4,3,16)             109.4158         estimate D2E/DX2                !
 ! A18   A(7,3,16)             107.5042         estimate D2E/DX2                !
 ! A19   A(3,4,5)              111.2657         estimate D2E/DX2                !
 ! A20   A(3,4,10)             109.4111         estimate D2E/DX2                !
 ! A21   A(3,4,11)             109.5868         estimate D2E/DX2                !
 ! A22   A(5,4,10)             109.4233         estimate D2E/DX2                !
 ! A23   A(5,4,11)             109.5746         estimate D2E/DX2                !
 ! A24   A(10,4,11)            107.5            estimate D2E/DX2                !
 ! A25   A(4,5,6)              111.3744         estimate D2E/DX2                !
 ! A26   A(4,5,12)             109.5589         estimate D2E/DX2                !
 ! A27   A(4,5,13)             109.3871         estimate D2E/DX2                !
 ! A28   A(6,5,12)             109.5649         estimate D2E/DX2                !
 ! A29   A(6,5,13)             109.3914         estimate D2E/DX2                !
 ! A30   A(12,5,13)            107.4801         estimate D2E/DX2                !
 ! A31   A(1,6,5)              111.2962         estimate D2E/DX2                !
 ! A32   A(1,6,14)             109.4108         estimate D2E/DX2                !
 ! A33   A(1,6,15)             109.5686         estimate D2E/DX2                !
 ! A34   A(5,6,14)             109.42           estimate D2E/DX2                !
 ! A35   A(5,6,15)             109.5728         estimate D2E/DX2                !
 ! A36   A(14,6,15)            107.4917         estimate D2E/DX2                !
 ! A37   A(1,17,19)            120.0            estimate D2E/DX2                !
 ! A38   A(2,18,21)            120.0            estimate D2E/DX2                !
 ! A39   A(17,19,20)           120.2269         estimate D2E/DX2                !
 ! A40   A(17,19,23)           119.8865         estimate D2E/DX2                !
 ! A41   A(20,19,23)           119.8865         estimate D2E/DX2                !
 ! A42   A(18,21,22)           119.8865         estimate D2E/DX2                !
 ! A43   A(18,21,27)           120.2269         estimate D2E/DX2                !
 ! A44   A(22,21,27)           119.8865         estimate D2E/DX2                !
 ! A45   A(19,23,24)           109.4712         estimate D2E/DX2                !
 ! A46   A(19,23,25)           109.4712         estimate D2E/DX2                !
 ! A47   A(19,23,26)           109.4712         estimate D2E/DX2                !
 ! A48   A(24,23,25)           109.4713         estimate D2E/DX2                !
 ! A49   A(24,23,26)           109.4712         estimate D2E/DX2                !
 ! A50   A(25,23,26)           109.4712         estimate D2E/DX2                !
 ! A51   A(21,27,28)           109.4712         estimate D2E/DX2                !
 ! A52   A(21,27,29)           109.4712         estimate D2E/DX2                !
 ! A53   A(21,27,30)           109.4712         estimate D2E/DX2                !
 ! A54   A(28,27,29)           109.4713         estimate D2E/DX2                !
 ! A55   A(28,27,30)           109.4712         estimate D2E/DX2                !
 ! A56   A(29,27,30)           109.4712         estimate D2E/DX2                !
 ! D1    D(6,1,2,3)            -55.1928         estimate D2E/DX2                !
 ! D2    D(6,1,2,8)             65.8497         estimate D2E/DX2                !
 ! D3    D(6,1,2,18)          -176.5618         estimate D2E/DX2                !
 ! D4    D(9,1,2,3)             65.8411         estimate D2E/DX2                !
 ! D5    D(9,1,2,8)           -173.1163         estimate D2E/DX2                !
 ! D6    D(9,1,2,18)           -55.5279         estimate D2E/DX2                !
 ! D7    D(17,1,2,3)          -176.5529         estimate D2E/DX2                !
 ! D8    D(17,1,2,8)           -55.5104         estimate D2E/DX2                !
 ! D9    D(17,1,2,18)           62.0781         estimate D2E/DX2                !
 ! D10   D(2,1,6,5)             55.0823         estimate D2E/DX2                !
 ! D11   D(2,1,6,14)           -65.9633         estimate D2E/DX2                !
 ! D12   D(2,1,6,15)           176.4253         estimate D2E/DX2                !
 ! D13   D(9,1,6,5)            -65.9498         estimate D2E/DX2                !
 ! D14   D(9,1,6,14)           173.0046         estimate D2E/DX2                !
 ! D15   D(9,1,6,15)            55.3933         estimate D2E/DX2                !
 ! D16   D(17,1,6,5)           176.4437         estimate D2E/DX2                !
 ! D17   D(17,1,6,14)           55.3981         estimate D2E/DX2                !
 ! D18   D(17,1,6,15)          -62.2133         estimate D2E/DX2                !
 ! D19   D(2,1,17,19)         -118.8227         estimate D2E/DX2                !
 ! D20   D(6,1,17,19)          118.7777         estimate D2E/DX2                !
 ! D21   D(9,1,17,19)           -0.0238         estimate D2E/DX2                !
 ! D22   D(1,2,3,4)             55.2571         estimate D2E/DX2                !
 ! D23   D(1,2,3,7)            176.5953         estimate D2E/DX2                !
 ! D24   D(1,2,3,16)           -65.7573         estimate D2E/DX2                !
 ! D25   D(8,2,3,4)            -65.7889         estimate D2E/DX2                !
 ! D26   D(8,2,3,7)             55.5492         estimate D2E/DX2                !
 ! D27   D(8,2,3,16)           173.1966         estimate D2E/DX2                !
 ! D28   D(18,2,3,4)           176.6237         estimate D2E/DX2                !
 ! D29   D(18,2,3,7)           -62.0382         estimate D2E/DX2                !
 ! D30   D(18,2,3,16)           55.6092         estimate D2E/DX2                !
 ! D31   D(1,2,18,21)          165.791          estimate D2E/DX2                !
 ! D32   D(3,2,18,21)           43.344          estimate D2E/DX2                !
 ! D33   D(8,2,18,21)          -75.4301         estimate D2E/DX2                !
 ! D34   D(2,3,4,5)            -55.2366         estimate D2E/DX2                !
 ! D35   D(2,3,4,10)            65.7936         estimate D2E/DX2                !
 ! D36   D(2,3,4,11)          -176.5742         estimate D2E/DX2                !
 ! D37   D(7,3,4,5)           -176.5771         estimate D2E/DX2                !
 ! D38   D(7,3,4,10)           -55.5468         estimate D2E/DX2                !
 ! D39   D(7,3,4,11)            62.0853         estimate D2E/DX2                !
 ! D40   D(16,3,4,5)            65.7833         estimate D2E/DX2                !
 ! D41   D(16,3,4,10)         -173.1864         estimate D2E/DX2                !
 ! D42   D(16,3,4,11)          -55.5543         estimate D2E/DX2                !
 ! D43   D(3,4,5,6)             55.2381         estimate D2E/DX2                !
 ! D44   D(3,4,5,12)           176.6158         estimate D2E/DX2                !
 ! D45   D(3,4,5,13)           -65.8064         estimate D2E/DX2                !
 ! D46   D(10,4,5,6)           -65.785          estimate D2E/DX2                !
 ! D47   D(10,4,5,12)           55.5927         estimate D2E/DX2                !
 ! D48   D(10,4,5,13)          173.1705         estimate D2E/DX2                !
 ! D49   D(11,4,5,6)           176.5828         estimate D2E/DX2                !
 ! D50   D(11,4,5,12)          -62.0395         estimate D2E/DX2                !
 ! D51   D(11,4,5,13)           55.5383         estimate D2E/DX2                !
 ! D52   D(4,5,6,1)            -55.1527         estimate D2E/DX2                !
 ! D53   D(4,5,6,14)            65.8876         estimate D2E/DX2                !
 ! D54   D(4,5,6,15)          -176.4932         estimate D2E/DX2                !
 ! D55   D(12,5,6,1)          -176.5268         estimate D2E/DX2                !
 ! D56   D(12,5,6,14)          -55.4866         estimate D2E/DX2                !
 ! D57   D(12,5,6,15)           62.1326         estimate D2E/DX2                !
 ! D58   D(13,5,6,1)            65.8893         estimate D2E/DX2                !
 ! D59   D(13,5,6,14)         -173.0704         estimate D2E/DX2                !
 ! D60   D(13,5,6,15)          -55.4512         estimate D2E/DX2                !
 ! D61   D(1,17,19,20)         -29.194          estimate D2E/DX2                !
 ! D62   D(1,17,19,23)         150.806          estimate D2E/DX2                !
 ! D63   D(2,18,21,22)        -108.037          estimate D2E/DX2                !
 ! D64   D(2,18,21,27)          71.963          estimate D2E/DX2                !
 ! D65   D(17,19,23,24)        129.2315         estimate D2E/DX2                !
 ! D66   D(17,19,23,25)       -110.7684         estimate D2E/DX2                !
 ! D67   D(17,19,23,26)          9.2315         estimate D2E/DX2                !
 ! D68   D(20,19,23,24)        -50.7685         estimate D2E/DX2                !
 ! D69   D(20,19,23,25)         69.2316         estimate D2E/DX2                !
 ! D70   D(20,19,23,26)       -170.7685         estimate D2E/DX2                !
 ! D71   D(18,21,27,28)        138.9717         estimate D2E/DX2                !
 ! D72   D(18,21,27,29)       -101.0283         estimate D2E/DX2                !
 ! D73   D(18,21,27,30)         18.9717         estimate D2E/DX2                !
 ! D74   D(22,21,27,28)        -41.0283         estimate D2E/DX2                !
 ! D75   D(22,21,27,29)         78.9717         estimate D2E/DX2                !
 ! D76   D(22,21,27,30)       -161.0283         estimate D2E/DX2                !
 --------------------------------------------------------------------------------
 Trust Radius=3.00D-01 FncErr=1.00D-07 GrdErr=1.00D-06 EigMax=2.50D+02 EigMin=1.00D-04
 Number of steps in this run=    172 maximum allowed number of steps=    180.
 GradGradGradGradGradGradGradGradGradGradGradGradGradGradGradGradGradGrad

                          Input orientation:                          
 ---------------------------------------------------------------------
 Center     Atomic      Atomic             Coordinates (Angstroms)
 Number     Number       Type             X           Y           Z
 ---------------------------------------------------------------------
      1          6           0       -2.287625   -1.646352    0.003080
      2          6           0       -0.772519   -1.646352    0.003080
      3          6           0       -0.220588   -0.235274    0.003080
      4          6           0       -0.770251    0.569263    1.163741
      5          6           0       -2.285376    0.569924    1.163252
      6          6           0       -2.838176   -0.840697    1.161956
      7          1           0        0.898011   -0.269265    0.065794
      8          1           0       -0.399970   -2.191986    0.909642
      9          1           0       -2.660313   -1.213323   -0.962305
     10          1           0       -0.397716    0.134418    2.128352
     11          1           0       -0.394228    1.623400    1.101746
     12          1           0       -2.660696    1.119352    2.065366
     13          1           0       -2.657231    1.116525    0.256929
     14          1           0       -2.572172   -1.346419    2.127271
     15          1           0       -3.956724   -0.805636    1.097018
     16          1           0       -0.489206    0.270359   -0.961466
     17          7           0       -2.780187   -3.028867    0.086357
     18          7           0       -0.280384   -2.367401   -1.179625
     19          6           0       -3.505785   -3.515544   -0.867611
     20          1           0       -4.129274   -2.871815   -1.452225
     21          6           0        0.959504   -2.260608   -1.532719
     22          1           0        1.218589   -1.700576   -2.406870
     23          6           0       -3.472118   -5.026595   -1.162892
     24          1           0       -4.472244   -5.405086   -1.200207
     25          1           0       -2.991500   -5.195512   -2.103834
     26          1           0       -2.929217   -5.529072   -0.389797
     27          6           0        2.063952   -2.936734   -0.699263
     28          1           0        2.788348   -3.373534   -1.354516
     29          1           0        2.539310   -2.206728   -0.077953
     30          1           0        1.631573   -3.699716   -0.086232
 ---------------------------------------------------------------------
                    Distance matrix (angstroms):
                    1          2          3          4          5
     1  C    0.000000
     2  C    1.515106   0.000000
     3  C    2.502755   1.515180   0.000000
     4  C    2.925493   2.501217   1.515435   0.000000
     5  C    2.501576   2.923459   2.501538   1.515125   0.000000
     6  C    1.514985   2.501802   2.925970   2.502859   1.515071
     7  H    3.471106   2.165865   1.120871   2.166037   3.470246
     8  H    2.163981   1.121768   2.163967   2.797529   3.353688
     9  H    1.121775   2.164081   2.800144   3.357085   2.799739
    10  H    3.355545   2.797928   2.164446   1.121761   2.164334
    11  H    3.934882   3.470079   2.166076   1.120911   2.165649
    12  H    3.470061   3.932856   3.470182   2.165481   1.120958
    13  H    2.799024   3.354112   2.798040   2.163908   1.121816
    14  H    2.164050   2.800160   3.358091   2.800919   2.164245
    15  H    2.165501   3.470254   3.934555   3.471082   2.165631
    16  H    2.799722   2.164347   1.121681   2.164448   2.798284
    17  N    1.470000   2.439060   3.789808   4.259946   3.788910
    18  N    2.438795   1.470000   2.438920   3.788843   4.258749
    19  C    2.394972   3.423846   4.723430   5.319321   4.722801
    20  H    2.647895   3.858430   4.934277   5.474243   4.699601
    21  C    3.644151   2.394972   2.802369   4.274473   5.080297
    22  H    4.254919   3.126549   3.166417   4.675138   5.493515
    23  C    3.766770   4.480331   5.906665   6.635279   6.175785
    24  H    4.510935   5.409616   6.800840   7.415244   6.787420
    25  H    4.187011   4.686096   6.059786   6.988821   6.664287
    26  H    3.954935   4.458836   5.959474   6.653143   6.326472
    27  C    4.592885   3.194361   3.606979   4.878064   5.889166
    28  H    5.530979   4.184017   4.554716   5.878001   6.901644
    29  H    4.860030   3.359881   3.392674   4.494566   5.703331
    30  H    4.425426   3.162901   3.929483   5.055233   5.927355
                    6          7          8          9         10
     6  C    0.000000
     7  H    3.935378   0.000000
     8  H    2.799016   2.468540   0.000000
     9  H    2.164017   3.822290   3.093722   0.000000
    10  H    2.800110   2.469011   2.626293   4.060531   0.000000
    11  H    3.471063   2.515007   3.820223   4.176415   1.808590
    12  H    2.165512   4.311721   4.172714   3.822063   2.468834
    13  H    2.163916   3.820562   4.058018   2.629588   3.093892
    14  H    1.121760   4.177573   2.629841   3.093697   2.630806
    15  H    1.120980   4.991950   3.821986   2.467327   3.822812
    16  H    3.355745   1.808543   3.093889   2.629642   3.094160
    17  N    2.438927   4.598365   2.653978   2.100062   4.455590
    18  N    3.788948   2.709586   2.100026   2.653901   4.149166
    19  C    3.423397   5.550044   3.815300   2.454386   5.653150
    20  H    3.553353   5.860994   4.466351   2.269023   5.981847
    21  C    4.868243   2.554305   2.796070   3.811201   4.580572
    22  H    5.471129   2.874976   3.722965   4.167741   5.152464
    23  C    4.829963   6.575704   4.665672   3.903883   6.849838
    24  H    5.392924   7.537841   5.599900   4.572807   7.639842
    25  H    5.445485   6.641046   4.981790   4.155792   7.283356
    26  H    4.939341   6.520799   4.384265   4.361854   6.695125
    27  C    5.646979   3.010004   3.035480   5.035675   4.846359
    28  H    6.663758   3.902197   4.085075   5.874373   5.881080
    29  H    5.685136   2.543283   3.100795   5.367030   4.356015
    30  H    5.450746   3.511299   2.718857   5.036859   4.870625
                   11         12         13         14         15
    11  H    0.000000
    12  H    2.513863   0.000000
    13  H    2.468161   1.808443   0.000000
    14  H    3.822953   2.468136   3.093785   0.000000
    15  H    4.311800   2.514551   2.467617   1.808550   0.000000
    16  H    2.469126   3.820716   2.626940   4.061159   4.173584
    17  N    5.326106   4.597660   4.150721   2.653155   2.710799
    18  N    4.598272   5.324782   4.455427   4.150935   4.597575
    19  C    6.322096   5.549665   4.841559   3.813928   3.377382
    20  H    6.378111   5.519020   4.582028   4.190966   3.285957
    21  C    4.884518   6.121780   5.262000   5.167592   5.762097
    22  H    5.095133   6.557571   5.482140   5.920619   6.313637
    23  C    7.669708   6.989472   6.357504   5.017845   4.812331
    24  H    8.445639   7.517577   6.924516   5.581680   5.167005
    25  H    7.969889   7.574244   6.747351   5.735295   5.517982
    26  H    7.733611   7.092353   6.682529   4.894661   5.057395
    27  C    5.484625   6.813025   6.295457   5.657919   6.634512
    28  H    6.413374   7.846891   7.239594   6.705760   7.622344
    29  H    4.966610   6.534270   6.177394   5.632974   6.748487
    30  H    5.818138   6.802674   6.458156   5.301800   6.403503
                   16         17         18         19         20
    16  H    0.000000
    17  N    4.151074   0.000000
    18  N    2.654991   2.879109   0.000000
    19  C    4.841654   1.293600   3.437848   0.000000
    20  H    4.833653   2.052301   3.891363   1.070000   0.000000
    21  C    2.971680   4.146917   1.293600   4.685727   5.125985
    22  H    2.981668   4.895993   2.048829   5.289909   5.557228
    23  C    6.082438   2.455668   4.154366   1.540000   2.271265
    24  H    6.937742   3.188216   5.176838   2.148263   2.568774
    25  H    6.119005   3.088032   4.025236   2.148263   2.668088
    26  H    6.317742   2.549502   4.199562   2.148263   3.103209
    27  C    4.107653   4.908296   2.459837   5.602261   6.239168
    28  H    4.916788   5.762248   3.234193   6.314535   6.936481
    29  H    4.011043   5.385161   3.031529   6.235361   6.841124
    30  H    4.585329   4.465810   2.574131   5.199704   5.978187
                   21         22         23         24         25
    21  C    0.000000
    22  H    1.070000   0.000000
    23  C    5.237053   5.883248   0.000000
    24  H    6.285077   6.896739   1.070000   0.000000
    25  H    4.954822   5.480078   1.070000   1.747303   0.000000
    26  H    5.206850   5.994186   1.070000   1.747303   1.747303
    27  C    1.540000   2.271265   5.935532   7.004681   5.712485
    28  H    2.148263   2.523961   6.477867   7.541035   6.106368
    29  H    2.148263   2.724765   6.728001   7.787864   6.605064
    30  H    2.148263   3.090708   5.382143   6.434735   5.261267
                   26         27         28         29         30
    26  H    0.000000
    27  C    5.634512   0.000000
    28  H    6.186080   1.070000   0.000000
    29  H    6.406247   1.070000   1.747303   0.000000
    30  H    4.923364   1.070000   1.747303   1.747303   0.000000
 Stoichiometry    C10H18N2
 Framework group  C1[X(C10H18N2)]
 Deg. of freedom    84
 Full point group                 C1      NOp   1
 Largest Abelian subgroup         C1      NOp   1
 Largest concise Abelian subgroup C1      NOp   1
                         Standard orientation:                         
 ---------------------------------------------------------------------
 Center     Atomic      Atomic             Coordinates (Angstroms)
 Number     Number       Type             X           Y           Z
 ---------------------------------------------------------------------
      1          6           0       -0.385677   -0.908225    0.150101
      2          6           0        0.533345    0.260212   -0.142646
      3          6           0        1.933521    0.004801    0.377008
      4          6           0        2.496592   -1.289201   -0.175307
      5          6           0        1.577936   -2.457769    0.118164
      6          6           0        0.177255   -2.202711   -0.399985
      7          1           0        2.601987    0.857828    0.090910
      8          1           0        0.573121    0.434549   -1.250070
      9          1           0       -0.525205   -1.003902    1.259044
     10          1           0        2.634464   -1.192444   -1.284350
     11          1           0        3.505132   -1.482259    0.274157
     12          1           0        1.989761   -3.386867   -0.354830
     13          1           0        1.539371   -2.632136    1.225675
     14          1           0        0.197170   -2.154193   -1.520518
     15          1           0       -0.490925   -3.055291   -0.111476
     16          1           0        1.912145   -0.046008    1.497334
     17          7           0       -1.707537   -0.655384   -0.441217
     18          7           0       -0.007075    1.478705    0.477129
     19          6           0       -2.752683   -0.584066    0.317720
     20          1           0       -2.790435   -1.132913    1.235458
     21          6           0        0.737706    2.529924    0.593925
     22          1           0        1.100003    2.822295    1.557335
     23          6           0       -3.946667    0.293778   -0.101076
     24          1           0       -4.848377   -0.279343   -0.043172
     25          1           0       -4.016997    1.136546    0.554436
     26          1           0       -3.804214    0.634062   -1.105473
     27          6           0        1.104702    3.362024   -0.648864
     28          1           0        1.051131    4.403493   -0.409339
     29          1           0        2.098935    3.118369   -0.960366
     30          1           0        0.419031    3.142356   -1.440383
 ---------------------------------------------------------------------
 Rotational constants (GHZ):           0.9269072           0.7866435           0.4570827
 Standard basis: 6-31G(d) (6D, 7F)
 There are   216 symmetry adapted cartesian basis functions of A   symmetry.
 There are   216 symmetry adapted basis functions of A   symmetry.
   216 basis functions,   408 primitive gaussians,   216 cartesian basis functions
    46 alpha electrons       46 beta electrons
       nuclear repulsion energy       725.9246403483 Hartrees.
 NAtoms=   30 NActive=   30 NUniq=   30 SFac= 1.00D+00 NAtFMM=   60 NAOKFM=F Big=F
 Integral buffers will be    131072 words long.
 Raffenetti 2 integral format.
 Two-electron integral symmetry is turned on.
 ------------------------------------------------------------------------------
 Polarizable Continuum Model (PCM)
 =================================
 Model                : PCM.
 Atomic radii         : SMD-Coulomb.
 Polarization charges : Total charges.
 Charge compensation  : None.
 Solution method      : On-the-fly selection.
 Cavity type          : VdW (van der Waals Surface) (Alpha=1.000).
 Cavity algorithm     : GePol (No added spheres)
                        Default sphere list used, NSphG=   30.
                        Lebedev-Laikov grids with approx.  5.0 points / Ang**2.
                        Smoothing algorithm: York/Karplus (Gamma=1.0000).
                        Polarization charges: spherical gaussians, with
                                              point-specific exponents (IZeta= 3).
                        Self-potential: point-specific (ISelfS= 7).
                        Self-field    : sphere-specific E.n sum rule (ISelfD= 2).
 1st derivatives      : Analytical E(r).r(x)/FMM algorithm (CHGder, D1EAlg=3).
                        Cavity 1st derivative terms included.
 Solvent              : Toluene, Eps=   2.374100 Eps(inf)=   2.238315
 ------------------------------------------------------------------------------
 ------------------------------------------------------------------------------
 Atomic radii for non-electrostatic terms: SMD-CDS.
 ------------------------------------------------------------------------------
 Nuclear repulsion after PCM non-electrostatic terms =      725.9186213453 Hartrees.
 One-electron integrals computed using PRISM.
 NBasis=   216 RedAO= T EigKep=  2.24D-03  NBF=   216
 NBsUse=   216 1.00D-06 EigRej= -1.00D+00 NBFU=   216
 ExpMin= 1.61D-01 ExpMax= 4.17D+03 ExpMxC= 6.27D+02 IAcc=3 IRadAn=         5 AccDes= 0.00D+00
 Harris functional with IExCor=  402 and IRadAn=       5 diagonalized for initial guess.
 HarFok:  IExCor=  402 AccDes= 0.00D+00 IRadAn=         5 IDoV= 1 UseB2=F ITyADJ=14
 ICtDFT=  3500011 ScaDFX=  1.000000  1.000000  1.000000  1.000000
 FoFCou: FMM=F IPFlag=           0 FMFlag=      100000 FMFlg1=           0
         NFxFlg=           0 DoJE=T BraDBF=F KetDBF=T FulRan=T
         wScrn=  0.000000 ICntrl=       500 IOpCl=  0 I1Cent=   200000004 NGrid=           0
         NMat0=    1 NMatS0=      1 NMatT0=    0 NMatD0=    1 NMtDS0=    0 NMtDT0=    0
 Petite list used in FoFCou.
 Requested convergence on RMS density matrix=1.00D-08 within 128 cycles.
 Requested convergence on MAX density matrix=1.00D-06.
 Requested convergence on             energy=1.00D-06.
 No special actions if energy rises.
 Inv3:  Mode=1 IEnd=    13066707.
 Iteration    1 A*A^-1 deviation from unit magnitude is 4.77D-15 for   2082.
 Iteration    1 A*A^-1 deviation from orthogonality  is 1.77D-15 for   1567     86.
 Iteration    1 A^-1*A deviation from unit magnitude is 5.44D-15 for   2082.
 Iteration    1 A^-1*A deviation from orthogonality  is 5.07D-14 for   1608   1567.
 Error on total polarization charges =  0.03059
 SCF Done:  E(RB3LYP) =  -501.307215832     A.U. after   14 cycles
            NFock= 14  Conv=0.42D-08     -V/T= 2.0097
 SMD-CDS (non-electrostatic) energy       (kcal/mol) =      -3.78
 (included in total energy above)

 **********************************************************************

            Population analysis using the SCF Density.

 **********************************************************************

 Orbital symmetries:
       Occupied  (A) (A) (A) (A) (A) (A) (A) (A) (A) (A) (A) (A)
                 (A) (A) (A) (A) (A) (A) (A) (A) (A) (A) (A) (A)
                 (A) (A) (A) (A) (A) (A) (A) (A) (A) (A) (A) (A)
                 (A) (A) (A) (A) (A) (A) (A) (A) (A) (A)
       Virtual   (A) (A) (A) (A) (A) (A) (A) (A) (A) (A) (A) (A)
                 (A) (A) (A) (A) (A) (A) (A) (A) (A) (A) (A) (A)
                 (A) (A) (A) (A) (A) (A) (A) (A) (A) (A) (A) (A)
                 (A) (A) (A) (A) (A) (A) (A) (A) (A) (A) (A) (A)
                 (A) (A) (A) (A) (A) (A) (A) (A) (A) (A) (A) (A)
                 (A) (A) (A) (A) (A) (A) (A) (A) (A) (A) (A) (A)
                 (A) (A) (A) (A) (A) (A) (A) (A) (A) (A) (A) (A)
                 (A) (A) (A) (A) (A) (A) (A) (A) (A) (A) (A) (A)
                 (A) (A) (A) (A) (A) (A) (A) (A) (A) (A) (A) (A)
                 (A) (A) (A) (A) (A) (A) (A) (A) (A) (A) (A) (A)
                 (A) (A) (A) (A) (A) (A) (A) (A) (A) (A) (A) (A)
                 (A) (A) (A) (A) (A) (A) (A) (A) (A) (A) (A) (A)
                 (A) (A) (A) (A) (A) (A) (A) (A) (A) (A) (A) (A)
                 (A) (A) (A) (A) (A) (A) (A) (A) (A) (A) (A) (A)
                 (A) (A)
 The electronic state is 1-A.
 Alpha  occ. eigenvalues --  -14.30627 -14.28313 -10.23813 -10.22050 -10.21451
 Alpha  occ. eigenvalues --  -10.19900 -10.17937 -10.17661 -10.17480 -10.17223
 Alpha  occ. eigenvalues --  -10.17006 -10.16823  -0.90755  -0.88293  -0.81758
 Alpha  occ. eigenvalues --   -0.74773  -0.74129  -0.71016  -0.69388  -0.61455
 Alpha  occ. eigenvalues --   -0.60238  -0.55365  -0.54664  -0.53378  -0.48341
 Alpha  occ. eigenvalues --   -0.47063  -0.44587  -0.43915  -0.42311  -0.41895
 Alpha  occ. eigenvalues --   -0.41380  -0.41078  -0.39890  -0.38871  -0.38183
 Alpha  occ. eigenvalues --   -0.37546  -0.37097  -0.34521  -0.33783  -0.32579
 Alpha  occ. eigenvalues --   -0.31493  -0.30358  -0.27342  -0.27115  -0.21874
 Alpha  occ. eigenvalues --   -0.17326
 Alpha virt. eigenvalues --   -0.04361   0.00088   0.08636   0.09654   0.11802
 Alpha virt. eigenvalues --    0.13399   0.14067   0.14781   0.15296   0.15969
 Alpha virt. eigenvalues --    0.17122   0.17648   0.17852   0.18208   0.18330
 Alpha virt. eigenvalues --    0.18829   0.18963   0.19459   0.20226   0.21291
 Alpha virt. eigenvalues --    0.22740   0.23913   0.24561   0.25616   0.26846
 Alpha virt. eigenvalues --    0.28131   0.29165   0.29284   0.31969   0.33771
 Alpha virt. eigenvalues --    0.37211   0.38909   0.51694   0.52529   0.53189
 Alpha virt. eigenvalues --    0.53950   0.54997   0.55628   0.56422   0.56971
 Alpha virt. eigenvalues --    0.58624   0.59171   0.60242   0.61668   0.62302
 Alpha virt. eigenvalues --    0.63548   0.64301   0.66219   0.67744   0.68656
 Alpha virt. eigenvalues --    0.69827   0.71071   0.72888   0.73797   0.75230
 Alpha virt. eigenvalues --    0.76415   0.77215   0.78241   0.81099   0.82148
 Alpha virt. eigenvalues --    0.83995   0.84574   0.85247   0.86533   0.87278
 Alpha virt. eigenvalues --    0.88655   0.88939   0.89416   0.89638   0.90231
 Alpha virt. eigenvalues --    0.91176   0.92374   0.93575   0.94048   0.94312
 Alpha virt. eigenvalues --    0.94785   0.95904   0.97162   0.98369   0.98732
 Alpha virt. eigenvalues --    1.01433   1.03417   1.04439   1.07936   1.11275
 Alpha virt. eigenvalues --    1.18427   1.20914   1.25749   1.28166   1.29931
 Alpha virt. eigenvalues --    1.32679   1.34145   1.37515   1.40288   1.42936
 Alpha virt. eigenvalues --    1.46053   1.49374   1.50268   1.54463   1.57997
 Alpha virt. eigenvalues --    1.63641   1.67295   1.67750   1.71386   1.72800
 Alpha virt. eigenvalues --    1.75625   1.75825   1.77982   1.80844   1.83047
 Alpha virt. eigenvalues --    1.84954   1.88897   1.90681   1.91343   1.93360
 Alpha virt. eigenvalues --    1.95360   1.97005   1.98717   2.01221   2.02145
 Alpha virt. eigenvalues --    2.02618   2.03234   2.06251   2.08373   2.09979
 Alpha virt. eigenvalues --    2.13605   2.15883   2.16271   2.20012   2.20714
 Alpha virt. eigenvalues --    2.21953   2.24982   2.28144   2.30502   2.31080
 Alpha virt. eigenvalues --    2.33112   2.34218   2.37461   2.38460   2.40156
 Alpha virt. eigenvalues --    2.42518   2.44609   2.49243   2.52221   2.53916
 Alpha virt. eigenvalues --    2.56800   2.58488   2.65346   2.67025   2.71207
 Alpha virt. eigenvalues --    2.74153   2.77065   2.79202   2.84486   2.90154
 Alpha virt. eigenvalues --    2.97500   2.99527   3.04587   3.94086   3.99958
 Alpha virt. eigenvalues --    4.12523   4.15084   4.20145   4.28259   4.32618
 Alpha virt. eigenvalues --    4.38021   4.40225   4.57178   4.60744   4.69384
          Condensed to atoms (all electrons):
               1          2          3          4          5          6
     1  C    4.995856   0.370672  -0.024064  -0.015753  -0.033415   0.325327
     2  C    0.370672   4.898828   0.350103  -0.033300  -0.013328  -0.037066
     3  C   -0.024064   0.350103   5.162123   0.338142  -0.047196  -0.015305
     4  C   -0.015753  -0.033300   0.338142   5.041395   0.381529  -0.047141
     5  C   -0.033415  -0.013328  -0.047196   0.381529   5.028752   0.349147
     6  C    0.325327  -0.037066  -0.015305  -0.047141   0.349147   5.126013
     7  H    0.004285  -0.031529   0.364950  -0.032103   0.005020   0.000034
     8  H   -0.052173   0.331502  -0.061529   0.000570  -0.000377  -0.001382
     9  H    0.332157  -0.055398  -0.003937  -0.000066  -0.002049  -0.040735
    10  H   -0.001335  -0.004452  -0.041546   0.370704  -0.041101  -0.004077
    11  H    0.000112   0.004412  -0.030273   0.363403  -0.032492   0.005141
    12  H    0.004481   0.000028   0.005339  -0.033556   0.364024  -0.031326
    13  H   -0.004676  -0.001264  -0.004215  -0.042085   0.370452  -0.041165
    14  H   -0.037573  -0.009020  -0.000060  -0.005075  -0.037707   0.360829
    15  H   -0.030031   0.005026  -0.000074   0.005282  -0.031987   0.362216
    16  H   -0.010976  -0.034146   0.350306  -0.035289  -0.004952   0.000251
    17  N    0.263267  -0.055301   0.004531  -0.000073   0.004217  -0.052552
    18  N   -0.063781   0.305558  -0.058992   0.005017  -0.000154   0.005110
    19  C   -0.039597  -0.002745  -0.000073   0.000001  -0.000174   0.000769
    20  H   -0.021437  -0.000093   0.000067  -0.000003  -0.000020   0.001329
    21  C    0.004767  -0.062788  -0.019690   0.001552  -0.000002  -0.000155
    22  H   -0.000053   0.007859   0.002738  -0.000131   0.000003  -0.000007
    23  C    0.008673  -0.000144  -0.000002   0.000000   0.000003  -0.000243
    24  H   -0.000189  -0.000008   0.000000  -0.000000  -0.000000   0.000013
    25  H   -0.000369   0.000075  -0.000001  -0.000000   0.000000  -0.000004
    26  H   -0.000432   0.000010   0.000002  -0.000000   0.000000   0.000003
    27  C   -0.000133  -0.013297  -0.004276   0.000138  -0.000004   0.000023
    28  H    0.000002   0.000280   0.000031   0.000000   0.000000  -0.000000
    29  H   -0.000009   0.000689   0.000945  -0.000195   0.000001  -0.000002
    30  H   -0.000097   0.001444   0.000221  -0.000006   0.000000   0.000002
               7          8          9         10         11         12
     1  C    0.004285  -0.052173   0.332157  -0.001335   0.000112   0.004481
     2  C   -0.031529   0.331502  -0.055398  -0.004452   0.004412   0.000028
     3  C    0.364950  -0.061529  -0.003937  -0.041546  -0.030273   0.005339
     4  C   -0.032103   0.000570  -0.000066   0.370704   0.363403  -0.033556
     5  C    0.005020  -0.000377  -0.002049  -0.041101  -0.032492   0.364024
     6  C    0.000034  -0.001382  -0.040735  -0.004077   0.005141  -0.031326
     7  H    0.601655  -0.005996  -0.000159  -0.004660  -0.002671  -0.000174
     8  H   -0.005996   0.703898   0.008360   0.005045  -0.000057  -0.000021
     9  H   -0.000159   0.008360   0.676904   0.000139  -0.000018  -0.000009
    10  H   -0.004660   0.005045   0.000139   0.611206  -0.033270  -0.004742
    11  H   -0.002671  -0.000057  -0.000018  -0.033270   0.605541  -0.002618
    12  H   -0.000174  -0.000021  -0.000009  -0.004742  -0.002618   0.609665
    13  H   -0.000055   0.000118   0.004795   0.005921  -0.004702  -0.033523
    14  H   -0.000041   0.005772   0.006731   0.004965  -0.000044  -0.004528
    15  H    0.000014  -0.000126  -0.005817  -0.000059  -0.000186  -0.002792
    16  H   -0.034479   0.007350   0.006269   0.005804  -0.004624  -0.000048
    17  N   -0.000075   0.000010  -0.049684  -0.000024   0.000003  -0.000093
    18  N   -0.006596  -0.061474   0.005668  -0.000006  -0.000089   0.000004
    19  C   -0.000001   0.000558  -0.007569  -0.000000  -0.000000   0.000000
    20  H    0.000000   0.000054   0.018503  -0.000000  -0.000000   0.000002
    21  C    0.005490  -0.000103   0.000709  -0.000004  -0.000063   0.000000
    22  H   -0.000540  -0.001296  -0.000192  -0.000001  -0.000001   0.000000
    23  C   -0.000000  -0.000062  -0.000728  -0.000000   0.000000  -0.000000
    24  H   -0.000000   0.000001   0.000021  -0.000000  -0.000000   0.000000
    25  H    0.000000   0.000004   0.000072   0.000000  -0.000000  -0.000000
    26  H   -0.000000   0.000030   0.000114  -0.000000   0.000000   0.000000
    27  C   -0.001345   0.012342   0.000063   0.000012   0.000001   0.000000
    28  H   -0.000006  -0.000171  -0.000000  -0.000000  -0.000000   0.000000
    29  H    0.003361  -0.001879  -0.000003   0.000000   0.000006  -0.000000
    30  H   -0.000083   0.000067  -0.000001  -0.000003  -0.000000   0.000000
              13         14         15         16         17         18
     1  C   -0.004676  -0.037573  -0.030031  -0.010976   0.263267  -0.063781
     2  C   -0.001264  -0.009020   0.005026  -0.034146  -0.055301   0.305558
     3  C   -0.004215  -0.000060  -0.000074   0.350306   0.004531  -0.058992
     4  C   -0.042085  -0.005075   0.005282  -0.035289  -0.000073   0.005017
     5  C    0.370452  -0.037707  -0.031987  -0.004952   0.004217  -0.000154
     6  C   -0.041165   0.360829   0.362216   0.000251  -0.052552   0.005110
     7  H   -0.000055  -0.000041   0.000014  -0.034479  -0.000075  -0.006596
     8  H    0.000118   0.005772  -0.000126   0.007350   0.000010  -0.061474
     9  H    0.004795   0.006731  -0.005817   0.006269  -0.049684   0.005668
    10  H    0.005921   0.004965  -0.000059   0.005804  -0.000024  -0.000006
    11  H   -0.004702  -0.000044  -0.000186  -0.004624   0.000003  -0.000089
    12  H   -0.033523  -0.004528  -0.002792  -0.000048  -0.000093   0.000004
    13  H    0.616287   0.005825  -0.004721   0.004913  -0.000014  -0.000027
    14  H    0.005825   0.604374  -0.032882   0.000156   0.001882  -0.000045
    15  H   -0.004721  -0.032882   0.603946  -0.000042  -0.001961  -0.000087
    16  H    0.004913   0.000156  -0.000042   0.606995  -0.000096   0.003728
    17  N   -0.000014   0.001882  -0.001961  -0.000096   6.817518  -0.001552
    18  N   -0.000027  -0.000045  -0.000087   0.003728  -0.001552   6.876676
    19  C   -0.000003   0.000099   0.001631   0.000008   0.568697   0.005706
    20  H   -0.000005   0.000117   0.000302  -0.000004  -0.054832   0.000005
    21  C   -0.000005   0.000002   0.000003   0.002167   0.000174   0.595866
    22  H    0.000000  -0.000000  -0.000000  -0.001655   0.000020  -0.065419
    23  C    0.000000  -0.000020  -0.000033   0.000000  -0.071937  -0.000296
    24  H   -0.000000   0.000000  -0.000001  -0.000000   0.002421   0.000008
    25  H    0.000000   0.000000   0.000001   0.000000  -0.001170   0.000107
    26  H   -0.000000   0.000007   0.000001  -0.000000   0.009478   0.000053
    27  C   -0.000000   0.000000  -0.000000   0.000765  -0.000078  -0.098110
    28  H    0.000000   0.000000   0.000000  -0.000010   0.000001   0.003495
    29  H    0.000000  -0.000000   0.000000  -0.000091   0.000001   0.002272
    30  H   -0.000000  -0.000000  -0.000000  -0.000005   0.000044  -0.001103
              19         20         21         22         23         24
     1  C   -0.039597  -0.021437   0.004767  -0.000053   0.008673  -0.000189
     2  C   -0.002745  -0.000093  -0.062788   0.007859  -0.000144  -0.000008
     3  C   -0.000073   0.000067  -0.019690   0.002738  -0.000002   0.000000
     4  C    0.000001  -0.000003   0.001552  -0.000131   0.000000  -0.000000
     5  C   -0.000174  -0.000020  -0.000002   0.000003   0.000003  -0.000000
     6  C    0.000769   0.001329  -0.000155  -0.000007  -0.000243   0.000013
     7  H   -0.000001   0.000000   0.005490  -0.000540  -0.000000  -0.000000
     8  H    0.000558   0.000054  -0.000103  -0.001296  -0.000062   0.000001
     9  H   -0.007569   0.018503   0.000709  -0.000192  -0.000728   0.000021
    10  H   -0.000000  -0.000000  -0.000004  -0.000001  -0.000000  -0.000000
    11  H   -0.000000  -0.000000  -0.000063  -0.000001   0.000000  -0.000000
    12  H    0.000000   0.000002   0.000000   0.000000  -0.000000   0.000000
    13  H   -0.000003  -0.000005  -0.000005   0.000000   0.000000  -0.000000
    14  H    0.000099   0.000117   0.000002  -0.000000  -0.000020   0.000000
    15  H    0.001631   0.000302   0.000003  -0.000000  -0.000033  -0.000001
    16  H    0.000008  -0.000004   0.002167  -0.001655   0.000000  -0.000000
    17  N    0.568697  -0.054832   0.000174   0.000020  -0.071937   0.002421
    18  N    0.005706   0.000005   0.595866  -0.065419  -0.000296   0.000008
    19  C    4.776804   0.338976  -0.000026  -0.000010   0.357420  -0.026743
    20  H    0.338976   0.652720   0.000002   0.000001  -0.076069   0.004014
    21  C   -0.000026   0.000002   4.781643   0.354681   0.000008  -0.000000
    22  H   -0.000010   0.000001   0.354681   0.644495   0.000001   0.000000
    23  C    0.357420  -0.076069   0.000008   0.000001   5.195724   0.350132
    24  H   -0.026743   0.004014  -0.000000   0.000000   0.350132   0.565331
    25  H   -0.026120   0.001149   0.000008  -0.000000   0.374716  -0.030536
    26  H   -0.027889   0.005594   0.000000   0.000000   0.357798  -0.023054
    27  C    0.000015  -0.000000   0.295934  -0.100069  -0.000002   0.000000
    28  H   -0.000000   0.000000  -0.017491   0.001396   0.000000  -0.000000
    29  H   -0.000000  -0.000000  -0.023008   0.006084   0.000000  -0.000000
    30  H    0.000002   0.000000  -0.025486   0.004089  -0.000001   0.000000
              25         26         27         28         29         30
     1  C   -0.000369  -0.000432  -0.000133   0.000002  -0.000009  -0.000097
     2  C    0.000075   0.000010  -0.013297   0.000280   0.000689   0.001444
     3  C   -0.000001   0.000002  -0.004276   0.000031   0.000945   0.000221
     4  C   -0.000000  -0.000000   0.000138   0.000000  -0.000195  -0.000006
     5  C    0.000000   0.000000  -0.000004   0.000000   0.000001   0.000000
     6  C   -0.000004   0.000003   0.000023  -0.000000  -0.000002   0.000002
     7  H    0.000000  -0.000000  -0.001345  -0.000006   0.003361  -0.000083
     8  H    0.000004   0.000030   0.012342  -0.000171  -0.001879   0.000067
     9  H    0.000072   0.000114   0.000063  -0.000000  -0.000003  -0.000001
    10  H    0.000000  -0.000000   0.000012  -0.000000   0.000000  -0.000003
    11  H   -0.000000   0.000000   0.000001  -0.000000   0.000006  -0.000000
    12  H   -0.000000   0.000000   0.000000   0.000000  -0.000000   0.000000
    13  H    0.000000  -0.000000  -0.000000   0.000000   0.000000  -0.000000
    14  H    0.000000   0.000007   0.000000   0.000000  -0.000000  -0.000000
    15  H    0.000001   0.000001  -0.000000   0.000000   0.000000  -0.000000
    16  H    0.000000  -0.000000   0.000765  -0.000010  -0.000091  -0.000005
    17  N   -0.001170   0.009478  -0.000078   0.000001   0.000001   0.000044
    18  N    0.000107   0.000053  -0.098110   0.003495   0.002272  -0.001103
    19  C   -0.026120  -0.027889   0.000015  -0.000000  -0.000000   0.000002
    20  H    0.001149   0.005594  -0.000000   0.000000  -0.000000   0.000000
    21  C    0.000008   0.000000   0.295934  -0.017491  -0.023008  -0.025486
    22  H   -0.000000   0.000000  -0.100069   0.001396   0.006084   0.004089
    23  C    0.374716   0.357798  -0.000002   0.000000   0.000000  -0.000001
    24  H   -0.030536  -0.023054   0.000000  -0.000000  -0.000000   0.000000
    25  H    0.524102  -0.023841   0.000000  -0.000000   0.000000  -0.000000
    26  H   -0.023841   0.526495  -0.000001   0.000000   0.000000   0.000003
    27  C    0.000000  -0.000001   5.349761   0.352552   0.339218   0.374724
    28  H   -0.000000   0.000000   0.352552   0.543113  -0.023156  -0.028452
    29  H    0.000000   0.000000   0.339218  -0.023156   0.542300  -0.020728
    30  H   -0.000000   0.000003   0.374724  -0.028452  -0.020728   0.510471
 Mulliken charges:
               1
     1  C    0.026493
     2  C    0.077393
     3  C   -0.268266
     4  C   -0.262957
     5  C   -0.258188
     6  C   -0.265049
     7  H    0.135703
     8  H    0.110968
     9  H    0.105859
    10  H    0.131482
    11  H    0.132488
    12  H    0.129885
    13  H    0.128147
    14  H    0.136237
    15  H    0.132380
    16  H    0.137707
    17  N   -0.382823
    18  N   -0.451541
    19  C    0.080267
    20  H    0.129630
    21  C    0.105815
    22  H    0.148006
    23  C   -0.494938
    24  H    0.158591
    25  H    0.181807
    26  H    0.175630
    27  C   -0.508234
    28  H    0.168417
    29  H    0.174193
    30  H    0.184898
 Sum of Mulliken charges =  -0.00000
 Mulliken charges with hydrogens summed into heavy atoms:
               1
     1  C    0.132352
     2  C    0.188360
     3  C    0.005144
     4  C    0.001014
     5  C   -0.000156
     6  C    0.003569
    17  N   -0.382823
    18  N   -0.451541
    19  C    0.209896
    21  C    0.253822
    23  C    0.021089
    27  C    0.019275
 Electronic spatial extent (au):  <R**2>=           2583.3750
 Charge=              0.0000 electrons
 Dipole moment (field-independent basis, Debye):
    X=              1.3657    Y=              0.8014    Z=              0.7993  Tot=              1.7738
 Quadrupole moment (field-independent basis, Debye-Ang):
   XX=            -68.0034   YY=            -68.6594   ZZ=            -75.7971
   XY=              2.9655   XZ=             -2.4345   YZ=             -1.6756
 Traceless Quadrupole moment (field-independent basis, Debye-Ang):
   XX=              2.8166   YY=              2.1605   ZZ=             -4.9771
   XY=              2.9655   XZ=             -2.4345   YZ=             -1.6756
 Octapole moment (field-independent basis, Debye-Ang**2):
  XXX=            -24.9581  YYY=             25.5017  ZZZ=              0.7521  XYY=              6.1219
  XXY=              5.1517  XXZ=              7.8443  XZZ=              1.9003  YZZ=              2.0725
  YYZ=              2.0092  XYZ=              4.6990
 Hexadecapole moment (field-independent basis, Debye-Ang**3):
 XXXX=          -1694.7089 YYYY=          -1436.8161 ZZZZ=           -218.0399 XXXY=             12.3905
 XXXZ=            -13.5599 YYYX=             27.6728 YYYZ=              9.1856 ZZZX=              1.2727
 ZZZY=             -0.6825 XXYY=           -539.8186 XXZZ=           -334.5215 YYZZ=           -285.0083
 XXYZ=             -4.7704 YYXZ=             -0.2082 ZZXY=              0.6601
 N-N= 7.259186213453D+02 E-N=-2.613765346213D+03  KE= 4.964950389370D+02
 D1PCM: PCM CHGder 1st derivatives, ID1Alg=3 FixD1E=F DoIter=F DoCFld=F I1PDM=0.
 Calling FoFJK, ICntrl=      2127 FMM=F ISym2X=0 I1Cent= 0 IOpClX= 0 NMat=1 NMatS=1 NMatT=0.
 ***** Axes restored to original set *****
 -------------------------------------------------------------------
 Center     Atomic                   Forces (Hartrees/Bohr)
 Number     Number              X              Y              Z
 -------------------------------------------------------------------
      1        6          -0.041062578   -0.007399040   -0.007202431
      2        6           0.012866869   -0.053871398    0.012151074
      3        6           0.015033795    0.014866068   -0.011490888
      4        6           0.012151838    0.014767508    0.014492255
      5        6          -0.013640253    0.020724354    0.006103669
      6        6          -0.015843550   -0.000889686    0.016938547
      7        1          -0.014358804    0.000259367   -0.002746725
      8        1          -0.009857946    0.011026419    0.001325199
      9        1           0.008918705    0.002071836    0.008928476
     10        1          -0.003827444    0.006530752   -0.010668686
     11        1          -0.002540643   -0.013395718    0.002710424
     12        1           0.003002449   -0.004624198   -0.012721968
     13        1           0.003808495   -0.004969323    0.011286005
     14        1          -0.004692234    0.004523760   -0.011849559
     15        1           0.014019441   -0.003053791    0.002100388
     16        1           0.004197835   -0.007709714    0.010652656
     17        7           0.016201315   -0.020075421   -0.025708208
     18        7           0.014650152    0.060838346   -0.034675383
     19        6           0.030537182   -0.013777017    0.035418051
     20        1          -0.005218368    0.010267991   -0.023195006
     21        6          -0.024167766   -0.045022108    0.045062665
     22        1           0.009345847   -0.007162043   -0.028842119
     23        6          -0.015690474    0.036521176    0.018249118
     24        1          -0.016849700   -0.011063750   -0.004317829
     25        1           0.007207280   -0.001173400   -0.016880297
     26        1           0.009247172   -0.006590074    0.011438721
     27        6          -0.016272926    0.022942719   -0.018231031
     28        1           0.015206018   -0.006210989   -0.009590419
     29        1           0.014566167    0.011456528    0.012062804
     30        1          -0.006937873   -0.009809156    0.009200494
 -------------------------------------------------------------------
 Cartesian Forces:  Max     0.060838346 RMS     0.018105521

 GradGradGradGradGradGradGradGradGradGradGradGradGradGradGradGradGradGrad
 Berny optimization.
 FormGI is forming the generalized inverse of G from B-inverse, IUseBI=4.
 Internal  Forces:  Max     0.053297108 RMS     0.009549849
 Search for a local minimum.
 Step number   1 out of a maximum of  172
 All quantities printed in internal units (Hartrees-Bohrs-Radians)
 Mixed Optimization -- RFO/linear search
 Second derivative matrix not updated -- first step.
 ITU=  0
     Eigenvalues ---    0.00237   0.00237   0.00751   0.00756   0.00766
     Eigenvalues ---    0.00766   0.00856   0.00952   0.00956   0.02152
     Eigenvalues ---    0.02194   0.03099   0.03099   0.03997   0.04270
     Eigenvalues ---    0.04294   0.04589   0.04897   0.04952   0.05024
     Eigenvalues ---    0.05664   0.05683   0.06051   0.06092   0.07175
     Eigenvalues ---    0.07243   0.07243   0.07243   0.07243   0.07419
     Eigenvalues ---    0.08175   0.08180   0.08186   0.08199   0.08834
     Eigenvalues ---    0.09758   0.12082   0.13069   0.15305   0.16000
     Eigenvalues ---    0.16000   0.16000   0.16000   0.16000   0.16000
     Eigenvalues ---    0.16000   0.16000   0.17264   0.17386   0.21077
     Eigenvalues ---    0.22000   0.22000   0.25000   0.25000   0.28519
     Eigenvalues ---    0.28519   0.28977   0.29207   0.29215   0.30833
     Eigenvalues ---    0.30841   0.30842   0.31380   0.31384   0.31385
     Eigenvalues ---    0.31386   0.31386   0.31394   0.31465   0.31467
     Eigenvalues ---    0.31472   0.31476   0.35740   0.35740   0.37230
     Eigenvalues ---    0.37230   0.37230   0.37230   0.37230   0.37230
     Eigenvalues ---    0.37230   0.37230   0.69002   0.69002
 RFO step:  Lambda=-6.73166229D-02 EMin= 2.36824135D-03
 Linear search not attempted -- first point.
 Maximum step size (   0.300) exceeded in Quadratic search.
    -- Step size scaled by   0.968
 Iteration  1 RMS(Cart)=  0.12768270 RMS(Int)=  0.01845037
 Iteration  2 RMS(Cart)=  0.06431893 RMS(Int)=  0.00278376
 Iteration  3 RMS(Cart)=  0.00355212 RMS(Int)=  0.00014797
 Iteration  4 RMS(Cart)=  0.00000918 RMS(Int)=  0.00014784
 Iteration  5 RMS(Cart)=  0.00000000 RMS(Int)=  0.00014784
 Variable       Old X    -DE/DX   Delta X   Delta X   Delta X     New X
                                 (Linear)    (Quad)   (Total)
    R1        2.86314   0.00838   0.00000   0.02395   0.02391   2.88705
    R2        2.86291   0.01436   0.00000   0.03726   0.03725   2.90015
    R3        2.11985  -0.00985   0.00000  -0.02500  -0.02500   2.09485
    R4        2.77790  -0.00326   0.00000  -0.00744  -0.00744   2.77046
    R5        2.86327   0.01417   0.00000   0.03718   0.03719   2.90047
    R6        2.11983  -0.00757   0.00000  -0.01921  -0.01921   2.10063
    R7        2.77790   0.00902   0.00000   0.02054   0.02054   2.79844
    R8        2.86376   0.01288   0.00000   0.03293   0.03294   2.89670
    R9        2.11814  -0.01449   0.00000  -0.03670  -0.03670   2.08144
   R10        2.11967  -0.01364   0.00000  -0.03462  -0.03462   2.08505
   R11        2.86317   0.01167   0.00000   0.02769   0.02772   2.89089
   R12        2.11982  -0.01298   0.00000  -0.03294  -0.03294   2.08688
   R13        2.11821  -0.01360   0.00000  -0.03445  -0.03445   2.08377
   R14        2.86307   0.01186   0.00000   0.02984   0.02983   2.89290
   R15        2.11830  -0.01351   0.00000  -0.03422  -0.03422   2.08408
   R16        2.11992  -0.01280   0.00000  -0.03251  -0.03251   2.08742
   R17        2.11982  -0.01335   0.00000  -0.03388  -0.03388   2.08594
   R18        2.11834  -0.01421   0.00000  -0.03599  -0.03599   2.08236
   R19        2.44455  -0.02579   0.00000  -0.03295  -0.03295   2.41160
   R20        2.44455  -0.01334   0.00000  -0.01705  -0.01705   2.42750
   R21        2.02201   0.02189   0.00000   0.04818   0.04818   2.07019
   R22        2.91018  -0.01934   0.00000  -0.05309  -0.05309   2.85709
   R23        2.02201   0.02208   0.00000   0.04860   0.04860   2.07060
   R24        2.91018  -0.00693   0.00000  -0.01901  -0.01901   2.89117
   R25        2.02201   0.01981   0.00000   0.04361   0.04361   2.06562
   R26        2.02201   0.01827   0.00000   0.04020   0.04020   2.06221
   R27        2.02201   0.01605   0.00000   0.03533   0.03533   2.05734
   R28        2.02201   0.01870   0.00000   0.04117   0.04117   2.06318
   R29        2.02201   0.02129   0.00000   0.04686   0.04686   2.06886
   R30        2.02201   0.01507   0.00000   0.03316   0.03316   2.05517
    A1        1.94271   0.00150   0.00000   0.00816   0.00823   1.95095
    A2        1.90946  -0.00272   0.00000  -0.02441  -0.02434   1.88513
    A3        1.91248  -0.00619   0.00000  -0.03053  -0.03048   1.88200
    A4        1.90952  -0.00077   0.00000  -0.00124  -0.00147   1.90805
    A5        1.91244   0.00400   0.00000   0.01768   0.01762   1.93006
    A6        1.87599   0.00426   0.00000   0.03111   0.03063   1.90662
    A7        1.94364  -0.00127   0.00000  -0.00637  -0.00651   1.93713
    A8        1.90933  -0.00360   0.00000  -0.03085  -0.03089   1.87844
    A9        1.91217  -0.00383   0.00000  -0.02041  -0.02018   1.89199
   A10        1.90923  -0.00088   0.00000  -0.00652  -0.00731   1.90192
   A11        1.91225   0.00413   0.00000   0.01942   0.01920   1.93145
   A12        1.87595   0.00570   0.00000   0.04656   0.04629   1.92224
   A13        1.94153   0.00215   0.00000   0.01210   0.01212   1.95365
   A14        1.91271  -0.00131   0.00000  -0.00538  -0.00546   1.90724
   A15        1.90983  -0.00137   0.00000  -0.00959  -0.00965   1.90018
   A16        1.91264   0.00087   0.00000   0.00440   0.00442   1.91706
   A17        1.90967  -0.00004   0.00000   0.00338   0.00340   1.91307
   A18        1.87630  -0.00038   0.00000  -0.00555  -0.00560   1.87070
   A19        1.94195   0.00014   0.00000   0.00320   0.00319   1.94514
   A20        1.90958   0.00004   0.00000  -0.00014  -0.00014   1.90944
   A21        1.91265   0.00008   0.00000   0.00053   0.00050   1.91315
   A22        1.90980   0.00010   0.00000  -0.00133  -0.00132   1.90848
   A23        1.91244   0.00079   0.00000   0.00672   0.00671   1.91915
   A24        1.87623  -0.00118   0.00000  -0.00944  -0.00944   1.86679
   A25        1.94385  -0.00137   0.00000  -0.00501  -0.00507   1.93878
   A26        1.91216   0.00124   0.00000   0.00833   0.00833   1.92049
   A27        1.90917   0.00007   0.00000  -0.00162  -0.00160   1.90757
   A28        1.91227   0.00124   0.00000   0.00771   0.00772   1.91999
   A29        1.90924   0.00033   0.00000   0.00072   0.00072   1.90996
   A30        1.87588  -0.00152   0.00000  -0.01035  -0.01034   1.86554
   A31        1.94248   0.00164   0.00000   0.00962   0.00958   1.95207
   A32        1.90958  -0.00128   0.00000  -0.00835  -0.00837   1.90121
   A33        1.91233  -0.00109   0.00000  -0.00500  -0.00511   1.90722
   A34        1.90974   0.00012   0.00000   0.00254   0.00255   1.91229
   A35        1.91241   0.00135   0.00000   0.00900   0.00904   1.92145
   A36        1.87608  -0.00083   0.00000  -0.00846  -0.00853   1.86756
   A37        2.09440  -0.00740   0.00000  -0.02257  -0.02257   2.07182
   A38        2.09440   0.05330   0.00000   0.16252   0.16252   2.25691
   A39        2.09836   0.00324   0.00000   0.01626   0.01622   2.11458
   A40        2.09241   0.00557   0.00000   0.01875   0.01871   2.11112
   A41        2.09241  -0.00881   0.00000  -0.03501  -0.03505   2.05736
   A42        2.09241  -0.00518   0.00000  -0.01202  -0.01227   2.08015
   A43        2.09836   0.02257   0.00000   0.07600   0.07576   2.17412
   A44        2.09241  -0.01739   0.00000  -0.06399  -0.06422   2.02819
   A45        1.91063   0.00830   0.00000   0.03722   0.03721   1.94785
   A46        1.91063  -0.00425   0.00000  -0.02103  -0.02101   1.88962
   A47        1.91063  -0.00160   0.00000  -0.00573  -0.00591   1.90472
   A48        1.91063  -0.00302   0.00000  -0.01498  -0.01479   1.89585
   A49        1.91063  -0.00059   0.00000   0.00341   0.00322   1.91385
   A50        1.91063   0.00115   0.00000   0.00111   0.00094   1.91157
   A51        1.91063   0.00211   0.00000   0.00818   0.00815   1.91878
   A52        1.91063   0.00684   0.00000   0.02878   0.02874   1.93937
   A53        1.91063  -0.00216   0.00000  -0.00805  -0.00804   1.90259
   A54        1.91063  -0.00554   0.00000  -0.02585  -0.02593   1.88470
   A55        1.91063   0.00032   0.00000   0.00200   0.00202   1.91265
   A56        1.91063  -0.00157   0.00000  -0.00506  -0.00506   1.90557
    D1       -0.96330   0.00315   0.00000   0.01919   0.01911  -0.94418
    D2        1.14929  -0.00119   0.00000  -0.01372  -0.01372   1.13558
    D3       -3.08159   0.00137   0.00000   0.01271   0.01273  -3.06886
    D4        1.14914   0.00134   0.00000   0.00662   0.00639   1.15553
    D5       -3.02145  -0.00299   0.00000  -0.02630  -0.02644  -3.04789
    D6       -0.96914  -0.00043   0.00000   0.00014   0.00001  -0.96914
    D7       -3.08143   0.00130   0.00000   0.01219   0.01227  -3.06916
    D8       -0.96884  -0.00304   0.00000  -0.02072  -0.02057  -0.98940
    D9        1.08347  -0.00048   0.00000   0.00571   0.00588   1.08935
   D10        0.96137  -0.00043   0.00000  -0.00659  -0.00665   0.95471
   D11       -1.15128  -0.00080   0.00000  -0.01042  -0.01041  -1.16169
   D12        3.07920   0.00160   0.00000   0.00764   0.00758   3.08678
   D13       -1.15104   0.00251   0.00000   0.01954   0.01949  -1.13155
   D14        3.01950   0.00215   0.00000   0.01572   0.01573   3.03523
   D15        0.96679   0.00454   0.00000   0.03377   0.03372   1.00052
   D16        3.07952  -0.00453   0.00000  -0.02773  -0.02775   3.05177
   D17        0.96688  -0.00489   0.00000  -0.03155  -0.03151   0.93537
   D18       -1.08583  -0.00250   0.00000  -0.01349  -0.01352  -1.09935
   D19       -2.07385   0.00416   0.00000   0.04360   0.04374  -2.03010
   D20        2.07306   0.00371   0.00000   0.04177   0.04215   2.11521
   D21       -0.00041  -0.00006   0.00000   0.01543   0.01491   0.01449
   D22        0.96442  -0.00193   0.00000  -0.01357  -0.01355   0.95087
   D23        3.08217  -0.00032   0.00000  -0.00375  -0.00372   3.07844
   D24       -1.14768  -0.00236   0.00000  -0.01924  -0.01915  -1.16683
   D25       -1.14823   0.00399   0.00000   0.03357   0.03349  -1.11474
   D26        0.96952   0.00560   0.00000   0.04339   0.04332   1.01284
   D27        3.02285   0.00357   0.00000   0.02791   0.02790   3.05075
   D28        3.08266  -0.00480   0.00000  -0.03031  -0.03036   3.05230
   D29       -1.08277  -0.00318   0.00000  -0.02048  -0.02054  -1.10331
   D30        0.97056  -0.00522   0.00000  -0.03597  -0.03596   0.93460
   D31        2.89360   0.00441   0.00000   0.05370   0.05384   2.94744
   D32        0.75650   0.00580   0.00000   0.06226   0.06279   0.81929
   D33       -1.31650   0.00128   0.00000   0.03237   0.03170  -1.28480
   D34       -0.96406   0.00016   0.00000   0.00322   0.00323  -0.96083
   D35        1.14832   0.00040   0.00000   0.00353   0.00354   1.15186
   D36       -3.08180  -0.00097   0.00000  -0.00768  -0.00766  -3.08947
   D37       -3.08185  -0.00018   0.00000  -0.00089  -0.00092  -3.08277
   D38       -0.96948   0.00005   0.00000  -0.00058  -0.00061  -0.97008
   D39        1.08359  -0.00131   0.00000  -0.01179  -0.01181   1.07178
   D40        1.14814  -0.00020   0.00000   0.00127   0.00128   1.14942
   D41       -3.02267   0.00004   0.00000   0.00158   0.00160  -3.02108
   D42       -0.96960  -0.00133   0.00000  -0.00963  -0.00961  -0.97922
   D43        0.96409  -0.00107   0.00000  -0.00922  -0.00923   0.95486
   D44        3.08253   0.00043   0.00000   0.00282   0.00281   3.08534
   D45       -1.14854  -0.00064   0.00000  -0.00580  -0.00582  -1.15435
   D46       -1.14816  -0.00127   0.00000  -0.01023  -0.01023  -1.15839
   D47        0.97028   0.00023   0.00000   0.00181   0.00181   0.97208
   D48        3.02240  -0.00084   0.00000  -0.00681  -0.00682   3.01558
   D49        3.08195  -0.00035   0.00000  -0.00194  -0.00193   3.08002
   D50       -1.08279   0.00115   0.00000   0.01010   0.01011  -1.07268
   D51        0.96933   0.00007   0.00000   0.00148   0.00149   0.97081
   D52       -0.96260   0.00107   0.00000   0.00903   0.00904  -0.95356
   D53        1.14995   0.00061   0.00000   0.00648   0.00647   1.15643
   D54       -3.08039   0.00046   0.00000   0.00297   0.00293  -3.07746
   D55       -3.08097  -0.00043   0.00000  -0.00337  -0.00335  -3.08433
   D56       -0.96842  -0.00089   0.00000  -0.00592  -0.00592  -0.97434
   D57        1.08442  -0.00104   0.00000  -0.00943  -0.00946   1.07496
   D58        1.14999   0.00049   0.00000   0.00424   0.00426   1.15424
   D59       -3.02065   0.00003   0.00000   0.00169   0.00169  -3.01896
   D60       -0.96781  -0.00012   0.00000  -0.00182  -0.00185  -0.96966
   D61       -0.50953   0.02401   0.00000   0.23448   0.23430  -0.27524
   D62        2.63206   0.02535   0.00000   0.25137   0.25156   2.88362
   D63       -1.88560  -0.03363   0.00000  -0.33559  -0.33602  -2.22162
   D64        1.25599  -0.03032   0.00000  -0.29382  -0.29339   0.96260
   D65        2.25552   0.00093   0.00000   0.00313   0.00335   2.25886
   D66       -1.93327  -0.00028   0.00000  -0.00530  -0.00538  -1.93865
   D67        0.16112  -0.00246   0.00000  -0.02033  -0.02027   0.14085
   D68       -0.88608   0.00227   0.00000   0.01997   0.02006  -0.86602
   D69        1.20832   0.00105   0.00000   0.01154   0.01133   1.21965
   D70       -2.98047  -0.00112   0.00000  -0.00349  -0.00356  -2.98403
   D71        2.42551  -0.00162   0.00000  -0.02426  -0.02415   2.40136
   D72       -1.76328  -0.00293   0.00000  -0.03329  -0.03312  -1.79639
   D73        0.33112  -0.00199   0.00000  -0.02680  -0.02665   0.30447
   D74       -0.71608   0.00170   0.00000   0.01751   0.01733  -0.69875
   D75        1.37832   0.00039   0.00000   0.00848   0.00836   1.38668
   D76       -2.81047   0.00133   0.00000   0.01498   0.01483  -2.79564
         Item               Value     Threshold  Converged?
 Maximum Force            0.053297     0.000450     NO 
 RMS     Force            0.009550     0.000300     NO 
 Maximum Displacement     0.834620     0.001800     NO 
 RMS     Displacement     0.170534     0.001200     NO 
 Predicted change in Energy=-4.821399D-02
 GradGradGradGradGradGradGradGradGradGradGradGradGradGradGradGradGradGrad

                          Input orientation:                          
 ---------------------------------------------------------------------
 Center     Atomic      Atomic             Coordinates (Angstroms)
 Number     Number       Type             X           Y           Z
 ---------------------------------------------------------------------
      1          6           0       -2.286058   -1.643648    0.002330
      2          6           0       -0.758993   -1.638844    0.048173
      3          6           0       -0.215177   -0.204680    0.105052
      4          6           0       -0.818999    0.591002    1.267792
      5          6           0       -2.347848    0.586780    1.214195
      6          6           0       -2.893126   -0.842727    1.162195
      7          1           0        0.881513   -0.235241    0.202679
      8          1           0       -0.448141   -2.179966    0.968076
      9          1           0       -2.601493   -1.192304   -0.959784
     10          1           0       -0.485249    0.152529    2.224818
     11          1           0       -0.444291    1.627720    1.240949
     12          1           0       -2.758122    1.115472    2.090801
     13          1           0       -2.683242    1.140826    0.319368
     14          1           0       -2.667071   -1.359350    2.111114
     15          1           0       -3.989977   -0.825903    1.057814
     16          1           0       -0.443578    0.301689   -0.848275
     17          7           0       -2.732234   -3.039338    0.050546
     18          7           0       -0.253003   -2.342355   -1.152670
     19          6           0       -3.361012   -3.516847   -0.952057
     20          1           0       -3.791497   -2.860386   -1.716159
     21          6           0        0.943883   -2.405723   -1.614828
     22          1           0        1.126694   -2.142238   -2.662564
     23          6           0       -3.554242   -5.007943   -1.110669
     24          1           0       -4.600415   -5.260032   -1.302474
     25          1           0       -2.954085   -5.342365   -1.958521
     26          1           0       -3.216662   -5.509787   -0.205435
     27          6           0        2.158926   -2.880999   -0.815763
     28          1           0        2.781742   -3.529122   -1.435466
     29          1           0        2.771902   -2.034696   -0.489252
     30          1           0        1.815639   -3.431376    0.057162
 ---------------------------------------------------------------------
                    Distance matrix (angstroms):
                    1          2          3          4          5
     1  C    0.000000
     2  C    1.527761   0.000000
     3  C    2.523833   1.534860   0.000000
     4  C    2.957586   2.542299   1.532865   0.000000
     5  C    2.539143   2.972788   2.530789   1.529794   0.000000
     6  C    1.534696   2.535620   2.948909   2.523634   1.530857
     7  H    3.472356   2.164539   1.101451   2.169996   3.482478
     8  H    2.144352   1.111604   2.168142   2.811695   3.365167
     9  H    1.108546   2.147133   2.793524   3.364455   2.820578
    10  H    3.377665   2.832267   2.166552   1.104331   2.163148
    11  H    3.953243   3.491732   2.168051   1.102683   2.169747
    12  H    3.492464   3.969270   3.486054   2.170855   1.102850
    13  H    2.830471   3.391585   2.819160   2.162687   1.104613
    14  H    2.161704   2.823934   3.371843   2.816102   2.166515
    15  H    2.164738   3.481308   3.942434   3.479484   2.171800
    16  H    2.811156   2.160734   1.103362   2.168498   2.821579
    17  N    1.466065   2.419725   3.791284   4.280365   3.827606
    18  N    2.440395   1.480871   2.480514   3.844941   4.309322
    19  C    2.361197   3.361229   4.688732   5.316388   4.749621
    20  H    2.588436   3.714985   4.812447   5.445345   4.749111
    21  C    3.691678   2.500693   3.024235   4.516371   5.271996
    22  H    4.358570   3.340257   3.635168   5.167593   5.877860
    23  C    3.763713   4.528483   5.974836   6.669843   6.177483
    24  H    4.487426   5.449200   6.838715   7.425629   6.752251
    25  H    4.239304   4.749876   6.177034   7.083257   6.751919
    26  H    3.981986   4.592238   6.103234   6.718542   6.319677
    27  C    4.685957   3.286881   3.694178   5.026333   6.037983
    28  H    5.595076   4.279152   4.733565   6.103144   7.090420
    29  H    5.096816   3.593430   3.553139   4.782893   5.998809
    30  H    4.474695   3.137193   3.812883   4.958474   5.900757
                    6          7          8          9         10
     6  C    0.000000
     7  H    3.941777   0.000000
     8  H    2.793536   2.477047   0.000000
     9  H    2.170264   3.794551   3.054348   0.000000
    10  H    2.813818   2.471326   2.649776   4.053240   0.000000
    11  H    3.479382   2.511252   3.817453   4.177233   1.773658
    12  H    2.171424   4.316987   4.178091   3.828372   2.472078
    13  H    2.165385   3.822912   4.055140   2.662031   3.072237
    14  H    1.103833   4.183083   2.627470   3.076136   2.656887
    15  H    1.101935   4.981119   3.792907   2.476457   3.821301
    16  H    3.369267   1.774448   3.075348   2.626984   3.076993
    17  N    2.467134   4.576600   2.607194   2.109359   4.468156
    18  N    3.818079   2.750278   2.135887   2.622065   4.205450
    19  C    3.440915   5.486471   3.736172   2.445491   5.641530
    20  H    3.628077   5.693009   4.341212   2.184196   5.961563
    21  C    4.987730   2.831645   2.942803   3.804098   4.830109
    22  H    5.698812   3.450560   3.957660   4.207281   5.634786
    23  C    4.790825   6.646765   4.686843   3.935682   6.868381
    24  H    5.338728   7.587196   5.646555   4.545277   7.659778
    25  H    5.476251   6.742796   4.984525   4.283083   7.334121
    26  H    4.874067   6.691967   4.486596   4.425848   6.740071
    27  C    5.795696   3.109508   3.235788   5.053119   5.043718
    28  H    6.794754   4.140536   4.246102   5.887801   6.133960
    29  H    6.020017   2.700070   3.537454   5.459340   4.770656
    30  H    5.485860   3.333023   2.742351   5.055558   4.778828
                   11         12         13         14         15
    11  H    0.000000
    12  H    2.517630   0.000000
    13  H    2.469672   1.773196   0.000000
    14  H    3.823679   2.476579   3.075954   0.000000
    15  H    4.315749   2.520608   2.474042   1.773157   0.000000
    16  H    2.474514   3.828515   2.661510   4.057210   4.181098
    17  N    5.332276   4.628797   4.189086   2.659426   2.737846
    18  N    4.639774   5.362117   4.495054   4.176878   4.599004
    19  C    6.307385   5.575019   4.875429   3.810428   3.417068
    20  H    6.331775   5.600737   4.623992   4.262096   3.445786
    21  C    5.133337   6.311525   5.429103   5.293064   5.829393
    22  H    5.649601   6.949745   5.846883   6.147647   6.461754
    23  C    7.696357   6.955532   6.372676   4.947645   4.730924
    24  H    8.437031   7.453550   6.875821   5.532244   5.060148
    25  H    8.069557   7.624898   6.877056   5.701641   5.528994
[...]
 8,0.00020201,-0.00002784,0.00006138,-0.00000972,0.00000874,-0.00000607
 ,0.00001073,-0.00000295,0.00002528,-0.00001483,-0.00002262,-0.00004940
 ,-0.00005350,0.00000752,0.00000733,0.00002250,0.00000010,-0.00001011,0
 .00000218,0.00000311,0.00000125,-0.00004099,-0.00003881,-0.00000099,-0
 .00000163,0.00000002,0.00000652,0.00000659,0.00000107,-0.00000460,-0.0
 0000285,-0.00000417,-0.00000235,0.00001576,-0.00000408,-0.00000914,-0.
 00000319,-0.00002218,0.00003388,-0.00003046,-0.00000341,-0.00000308,0.
 00000165,-0.00000427,-0.00061222,-0.00117473,0.00068719,0.00001725,-0.
 00001217,0.00001487,-0.00419258,-0.00260324,-0.00157220,-0.00004339,0.
 00004978,-0.00001328,-0.00002226,0.00002885,-0.00002883,-0.00000156,-0
 .00000898,0.00001171,0.01632503,0.00752645,-0.04667961,-0.01903584,-0.
 00342950,0.04676226,-0.00089993,-0.00038216,0.00075772,0.00006791,-0.0
 0023955,-0.00010758,-0.00007080,-0.00000455,0.00002418,-0.00000224,0.0
 0001159,-0.00000401,-0.00001371,-0.00000464,0.00006641,0.00001344,0.00
 023132,-0.00002355,-0.00000763,-0.00002068,-0.00000734,-0.00001264,0.0
 0000552,0.00000295,-0.00002555,-0.00004427,-0.00001243,0.00000021,-0.0
 0000145,-0.00000083,0.00000235,0.00000708,0.00000412,0.00000092,0.0000
 2427,0.00000491,-0.00000307,0.00000230,-0.00000485,0.00000821,0.000001
 24,-0.00000997,0.00000797,0.00000121,-0.00000405,0.00000059,0.00000796
 ,-0.00000415,0.00045291,-0.00142233,-0.00037113,0.00005842,0.00006535,
 0.00001741,0.00100535,-0.00365102,-0.00766233,0.00000145,0.00035438,0.
 00005998,-0.00003235,-0.00000918,0.00002629,-0.00002058,-0.00001307,0.
 00001720,-0.06919518,0.02979178,0.07137048,-0.01027195,0.01150447,0.02
 994189,0.07315920,-0.00326950,0.00046001,0.00130906,0.00046682,-0.0011
 0307,-0.00013638,-0.00044632,0.00008314,0.00007168,0.00002204,0.000025
 63,0.00005808,-0.00000107,0.00004938,-0.00002140,0.00001768,0.00023569
 ,0.00028728,-0.00004683,-0.00018604,-0.00002317,-0.00000935,0.00004324
 ,0.00000830,0.00009244,-0.00021671,0.00010076,-0.00000202,0.00000775,-
 0.00000874,-0.00000866,-0.00002581,-0.00001350,0.00000531,-0.00004129,
 -0.00002505,-0.00000131,-0.00001454,0.00001037,0.00000112,0.00001616,-
 0.00000400,0.00002804,0.00003987,-0.00002429,0.00001799,-0.00001660,0.
 00000742,0.00158780,-0.00431405,-0.00029904,-0.00001279,0.00001498,-0.
 00008670,0.00929147,-0.00945556,-0.03305763,-0.00056866,0.00078251,0.0
 0170456,0.00009457,-0.00003748,-0.00002397,-0.00005442,0.00003266,0.00
 005872,0.03029650,-0.07730672,-0.07669975,-0.00154687,0.00242808,0.006
 54836,-0.02893693,0.08245095,-0.00015873,-0.00016382,0.00039108,0.0000
 8374,-0.00004173,-0.00003241,-0.00004174,0.00000667,0.00001697,0.00001
 424,0.00000676,-0.00000247,0.00000548,0.00001500,0.00001298,-0.0000323
 6,0.00007682,0.00001638,-0.00000618,-0.00001482,-0.00000694,-0.0000187
 0,0.00000268,0.00001111,-0.00001939,-0.00009366,0.00002269,-0.00000066
 ,0.00000182,0.00000052,-0.00000811,-0.00000436,0.00000445,-0.00000223,
 -0.00000443,-0.00000312,-0.00000147,-0.00000677,0.00000106,0.00001408,
 0.00000780,-0.00000282,-0.00001196,0.00000975,0.00000131,0.00000424,0.
 00000414,-0.00000313,0.00135954,-0.00112721,0.00022413,-0.00003341,0.0
 0001465,-0.00001387,-0.00232079,-0.00157298,-0.00065858,-0.00016785,-0
 .00075055,0.00019342,0.00003559,-0.00001956,0.00001735,-0.00001878,-0.
 00000214,0.00002842,0.07188286,-0.07458245,-0.25524335,0.00089485,-0.0
 0011806,-0.00200281,-0.07957213,0.08622928,0.27511677,-0.00005951,-0.0
 0033211,0.00026918,-0.00000078,-0.00001119,-0.00000117,-0.00000039,-0.
 00000671,-0.00000331,-0.00000033,-0.00000139,-0.00000913,-0.00002285,-
 0.00000087,0.00003490,0.00001422,0.00010333,-0.00006236,0.00000211,0.0
 0000590,-0.00000032,-0.00000731,0.00000133,-0.00000046,-0.00013433,-0.
 00003709,-0.00015819,0.00000256,-0.00000190,0.00000246,-0.00000175,0.0
 0000419,0.00000377,0.,0.00001911,0.00000860,0.00000069,-0.00000349,0.0
 0000142,0.00002177,0.00000109,-0.00000538,-0.00002097,0.00001032,-0.00
 000701,0.00000052,0.00000490,0.,-0.00008107,0.00007002,0.00106418,0.00
 000031,0.00002576,-0.00000806,0.00252963,-0.00257722,0.00493270,0.0013
 8874,-0.00115302,-0.00091529,0.00000623,-0.00002585,0.00004549,-0.0000
 0533,-0.00000146,-0.00000602,-0.11602048,0.06535482,-0.09702525,-0.012
 85176,0.01574967,-0.02313624,0.00579364,-0.00699274,0.00812943,0.11953
 265,-0.00032700,-0.00008193,-0.00048500,0.00000970,-0.00000036,-0.0000
 3639,-0.00001170,-0.00000881,0.00000632,0.00000327,0.00000294,0.000003
 17,0.00001030,-0.00000367,-0.00002204,-0.00005396,-0.00003161,0.000005
 58,0.00000071,-0.00000727,0.00000174,-0.00006665,-0.00001817,-0.000010
 66,-0.00013194,0.00048488,-0.00024954,-0.00000546,-0.00000030,-0.00000
 645,-0.00000182,0.00000255,-0.00000008,0.00000052,-0.00001206,0.000000
 16,-0.00000288,0.00001475,0.00000003,-0.00001034,-0.00002309,-0.000058
 73,0.00000294,0.00000215,0.00002700,0.00000424,0.00000977,-0.00000440,
 0.00081128,0.00446885,0.00029670,-0.00006973,0.00002706,-0.00005075,0.
 01907473,-0.01760522,0.02793675,-0.00160694,-0.00568127,-0.00112896,0.
 00005979,-0.00008505,0.00006573,-0.00001410,0.00000272,-0.00001028,0.0
 6270107,-0.11197417,0.09285122,-0.00280249,0.00337766,-0.00652185,-0.0
 0730435,0.00602056,-0.00789416,-0.07017980,0.12110193,0.00025111,-0.00
 044884,0.00020200,-0.00006040,0.00012068,-0.00000791,0.00004372,0.0000
 0218,-0.00002371,-0.00000918,-0.00000544,-0.00000362,-0.00001136,-0.00
 000502,0.00001043,0.00002242,0.00003232,-0.00001874,0.00000919,0.00002
 087,0.00000154,-0.00000795,0.00000758,-0.00000090,-0.00014285,-0.00011
 289,-0.00017834,0.00000229,-0.00000203,0.00000389,0.00000483,0.0000028
 6,-0.00000195,0.00000083,0.00001255,0.00000327,0.00000215,0.00000368,0
 .00000019,0.00000054,-0.00000063,-0.00000297,0.00000644,-0.00000396,-0
 .00000703,0.00000010,0.00000030,0.00000236,0.00095971,-0.00068332,0.00
 051966,0.00006762,-0.00004671,0.00005543,0.00190703,-0.00122981,0.0018
 5026,-0.00084809,-0.00046787,0.00111343,-0.00006487,0.00009306,-0.0000
 8955,0.00001131,-0.00000221,0.00000238,-0.09671746,0.09650942,-0.19404
 405,0.00211563,-0.00315965,0.00317961,-0.01446322,0.01405009,-0.018048
 76,0.10687537,-0.10467121,0.20541291,-0.00039175,0.00044385,0.00120665
 ,-0.00547714,-0.00568634,-0.00318288,0.00008462,0.00007131,-0.00124233
 ,0.00004622,-0.00036357,0.00015488,0.00005047,0.00002275,0.00001693,-0
 .00033347,-0.00006651,-0.00015408,-0.00003238,-0.00003864,-0.00004583,
 -0.00072843,0.00051556,0.00016301,-0.00008051,-0.00003227,0.00008853,-
 0.00002566,0.00003078,0.00007229,0.00004130,-0.00003209,-0.00005039,-0
 .00002264,-0.00000482,0.00001134,-0.00000296,-0.00000994,-0.00000830,0
 .00004205,-0.00000842,-0.00001148,-0.00009253,0.00004565,0.00007394,0.
 00012234,-0.00010655,0.00005664,-0.00038657,-0.00014762,-0.00001619,0.
 00302213,0.03259015,-0.01339209,-0.00014645,0.00007644,0.00003559,0.00
 001405,-0.00000963,-0.00005842,-0.09717183,0.02695654,-0.02969998,0.01
 034507,0.00181970,0.00622022,-0.00003702,0.00001718,-0.00005140,0.0000
 1027,-0.00001298,0.00001077,-0.00000192,-0.00002086,0.00000949,-0.0000
 3254,-0.00004156,0.00001801,0.54302628,0.00001908,0.00015854,0.0015371
 6,-0.00698883,-0.00262382,0.00142809,0.00020336,-0.00025998,0.00012351
 ,-0.00003946,-0.00003041,0.00002562,0.00001720,0.00000369,0.00000438,-
 0.00049494,-0.00001569,-0.00014163,-0.00004053,-0.00012053,-0.00011697
 ,0.00124077,-0.00186697,-0.00067198,0.00003015,0.00005701,0.00003027,0
 .00000925,0.00001628,0.00002032,0.00003326,-0.00004607,0.00000780,-0.0
 0000207,-0.00001414,-0.00000894,-0.00001123,0.00000470,0.00000425,0.00
 004512,-0.00003621,-0.00003889,-0.00004274,0.00004138,0.00012508,-0.00
 001437,-0.00014524,-0.00005472,0.00062492,0.00042804,-0.00016068,0.032
 20893,-0.01156486,0.01762841,-0.00012558,-0.00040639,0.00001048,-0.000
 03069,-0.00000524,0.00010497,0.02716399,-0.12084243,0.05096612,0.00398
 322,0.00613610,-0.00313086,0.00003352,0.00001361,0.00003311,-0.0000035
 9,0.00004113,-0.00000645,0.00000912,0.00002776,0.00001285,-0.00000349,
 0.00000984,-0.00003171,-0.00056892,0.53263644,0.00032621,0.00007137,0.
 00070479,0.00091171,-0.00317852,0.00224589,0.00027187,-0.00006979,0.00
 010527,-0.00000094,0.00002749,-0.00002645,0.00001509,-0.00002037,0.000
 01769,-0.00012585,-0.00000626,-0.00007549,-0.00007636,0.00006450,-0.00
 002630,-0.00022805,0.00020706,0.00124170,0.00003665,0.00000983,-0.0001
 5285,0.00000610,-0.00000064,0.00000729,-0.00001754,0.00004786,0.000015
 72,-0.00001790,0.00002257,0.00002230,0.00000281,0.00000001,-0.00000083
 ,0.00000715,-0.00000838,-0.00001087,-0.00007498,0.00002157,0.00003974,
 -0.00001898,-0.00012533,-0.00010520,-0.00035846,-0.00015132,0.00029883
 ,-0.00335398,0.00784997,0.01174124,0.00005458,0.00023832,-0.00002761,0
 .00007069,-0.00000097,-0.00008453,-0.02348443,0.03813871,-0.15473660,-
 0.01035672,0.01649072,-0.01629933,0.00001672,-0.00003806,0.00000970,-0
 .00001531,-0.00000815,0.00000200,0.00001258,-0.00000685,0.00000144,0.0
 0002030,0.00003670,-0.00002419,-0.03857734,0.04162034,0.52823012,0.000
 08072,-0.00009214,-0.00002815,0.00070701,-0.00017401,-0.00092986,-0.00
 017753,0.00000658,-0.00002222,0.00003130,0.00004130,-0.00002745,0.0000
 0985,-0.00001453,0.00000115,-0.00001092,-0.00003963,-0.00001257,0.0000
 2590,0.00002818,-0.00001087,-0.00003805,-0.00024270,-0.00008231,-0.000
 02041,0.00002269,-0.00000496,-0.00000597,-0.00000765,0.00001886,-0.000
 00959,0.00002260,0.00002617,-0.00000845,0.00000747,0.00000992,0.000002
 07,0.00000407,-0.00000568,0.00000066,0.00000392,-0.00000622,-0.0000211
 6,0.00000891,0.00001639,0.00001847,0.00004745,0.00004412,-0.00051736,-
 0.00007130,0.00001006,-0.00022903,0.00226794,-0.00242736,0.00013689,0.
 00027131,0.00014492,0.00000639,-0.00001304,-0.00008211,-0.00829613,0.0
 0820623,0.00817212,0.00047235,-0.00059923,-0.00017051,-0.00004365,-0.0
 0001698,-0.00000853,0.00001159,-0.00004462,-0.00000302,-0.00002589,-0.
 00003101,-0.00003705,-0.00001411,-0.00000156,0.00003851,-0.11970811,0.
 10161292,0.06114529,0.12568749,0.00000651,-0.00020404,-0.00001236,-0.0
 0058470,0.00058075,0.00173834,0.00005351,0.00000248,-0.00012097,-0.000
 03390,-0.00004212,0.00003409,-0.00002262,0.00001304,-0.00000837,0.0000
 4920,0.00006325,0.00002897,-0.00000281,0.00003080,-0.00000853,-0.00038
 076,0.00019545,-0.00004218,0.00001119,0.00004935,-0.00005933,0.0000053
 9,0.00000427,-0.00000571,0.00001806,-0.00003523,-0.00003370,0.00001669
 ,-0.00000803,-0.00001536,0.00000381,0.00000096,0.00000975,-0.00000410,
 -0.00000871,-0.00002251,0.00003451,-0.00000822,-0.00003674,-0.00000490
 ,0.00001106,-0.00001779,-0.00003855,0.00003340,-0.00000241,0.00262668,
 -0.00170456,0.00362146,-0.00003503,-0.00002941,-0.00002925,0.00000341,
 0.00000463,-0.00001894,0.00869851,-0.01441269,-0.01252471,-0.00041912,
 0.00096653,0.00015565,-0.00000122,0.00000420,0.00001888,0.00000327,0.0
 0000962,-0.00000157,-0.00000106,0.00001590,0.00000469,-0.00000325,0.00
 000665,-0.00000256,0.10117404,-0.19564821,-0.08574407,-0.11310010,0.20
 977703,-0.00002848,-0.00004341,0.00023157,0.00019219,-0.00010824,-0.00
 221208,0.00010839,0.00003079,0.00029474,0.00000388,0.00004496,0.000006
 83,-0.00000152,0.00000230,0.00000108,-0.00004803,-0.00001471,0.0000003
 7,-0.00000088,0.00001147,-0.00002139,0.00052260,-0.00049242,0.00073322
 ,0.00014613,-0.00001745,0.00003390,0.00000057,0.00001309,0.00002495,0.
 00000094,-0.00000673,0.00000740,0.00000344,-0.00000305,-0.00000636,0.0
 0000404,-0.00000398,0.00000322,-0.00001409,-0.00000281,0.00002983,0.00
 000800,-0.00000070,0.00001403,0.00001960,-0.00013579,0.00002301,0.0002
 4650,0.00003851,0.00001326,-0.00271021,0.00261611,-0.00367478,-0.00006
 131,-0.00010475,-0.00007208,0.00000160,-0.00000163,0.00005235,-0.01463
 306,0.02150855,0.01192748,0.00001540,-0.00013862,0.00125003,0.00002666
 ,0.00001252,0.00001420,0.00000198,0.00001426,-0.00000242,-0.00000089,0
 .00000468,0.00000719,0.00000390,-0.00000778,-0.00001182,0.06375388,-0.
 08991397,-0.10221783,-0.06567962,0.09408901,0.10994092,0.00014642,-0.0
 0023616,0.00046281,-0.00061001,-0.00015103,-0.00105719,-0.00004275,-0.
 00010290,0.00035173,-0.00000514,0.00010383,-0.00004974,-0.00000743,-0.
 00001774,0.00001470,-0.00009432,0.00002453,-0.00006437,0.00004848,0.00
 004967,-0.00006661,-0.00055607,0.00014854,0.00077510,0.00014910,0.0000
 3947,-0.00002396,0.00000528,0.00000913,0.00006267,0.00000275,-0.000001
 65,0.00003549,0.00000244,0.00001116,-0.00000010,0.00001329,-0.00000275
 ,0.00000622,-0.00001292,-0.00001935,0.00002487,-0.00000153,0.00000503,
 0.00003163,0.00004885,-0.00013442,0.00000383,-0.00031888,0.00004860,0.
 00010513,0.00246208,0.00208379,-0.00079105,0.00010019,0.00008533,0.000
 04250,0.00004376,-0.00000222,-0.00005456,-0.00884785,-0.00571972,-0.00
 588611,-0.00072221,0.00024971,-0.00055269,-0.00002870,-0.00000357,0.00
 003294,-0.00001892,-0.00000446,-0.00000438,0.00001802,0.00001109,0.000
 01337,0.00001438,0.00001602,-0.00002088,-0.14955310,-0.08421779,-0.097
 87531,0.01271127,0.00851171,0.01081509,0.15934533,-0.00008789,0.000113
 85,-0.00051842,0.00076734,0.00076395,-0.00022627,0.00029955,0.00011481
 ,0.00011679,-0.00006434,-0.00005885,-0.00001145,-0.00002812,0.00001887
 ,0.00001743,0.00009629,0.00006759,0.00004302,-0.00004452,-0.00012462,0
 .00003309,0.00105635,-0.00042009,-0.00009112,-0.00005394,0.00000863,0.
 00000405,0.00001370,-0.00000250,-0.00003698,0.00000692,-0.00001217,-0.
 00003181,0.00000046,-0.00000176,-0.00000197,-0.00000335,-0.00000292,0.
 00000283,-0.00000524,0.00000126,0.00000767,0.00004147,-0.00002563,-0.0
 0003057,-0.00007087,0.00002760,0.00004421,-0.00007927,0.00003453,0.000
 03105,-0.00284935,-0.00308544,0.00042593,0.00002289,-0.00004044,0.0000
 1348,0.00000616,0.00001371,-0.00002077,0.01531920,0.01377096,0.0113697
 4,-0.00086768,-0.00148858,0.00142517,-0.00001372,-0.00000487,0.0000312
 3,-0.00002016,0.00001416,-0.00000478,0.00002195,0.00001308,0.00002185,
 0.00002032,0.00002001,-0.00003474,-0.08142799,-0.11411783,-0.07779987,
 -0.01625356,-0.01206128,-0.01302690,0.09140452,0.12334054,0.00022555,0
 .00029954,0.00044348,-0.00142246,-0.00079849,0.00061816,-0.00008879,-0
 .00026127,0.00009830,0.00005330,0.00003652,-0.00000784,0.00001574,-0.0
 0003724,-0.00001994,-0.00019236,-0.00008352,-0.00005401,0.00007711,0.0
 0006221,-0.00003187,-0.00003378,-0.00005064,0.00031418,-0.00000364,0.0
 0002239,-0.00006041,-0.00000640,-0.00000672,0.00001027,-0.00000856,0.0
 0002274,0.00002369,0.00000037,0.00000951,0.00000691,-0.00000151,0.0000
 0495,-0.00000566,0.00000843,0.00000286,-0.00000537,-0.00004172,0.00003
 377,0.00006979,0.00002617,-0.00003201,-0.00003018,0.00010759,-0.000026
 40,-0.00007356,0.00382987,0.00079647,-0.00007712,0.00000337,-0.0000076
 6,0.00002287,-0.00001443,-0.00000412,0.00001599,-0.01393756,-0.0096994
 9,-0.01505330,-0.00025624,0.00239648,-0.00172497,-0.00000240,-0.000000
 66,-0.00003880,0.00000131,-0.00000704,0.00000664,0.00000014,-0.0000045
 8,-0.00000129,-0.00000681,-0.00001308,0.00001567,-0.09949688,-0.082027
 88,-0.13561261,-0.00922480,-0.00696850,-0.00843558,0.10831413,0.086324
 36,0.14657535,0.00055305,0.00089482,0.00005309,0.00067078,0.00021720,0
 .00154138,0.00000491,-0.00001525,0.00007056,0.00003184,-0.00001234,-0.
 00001402,0.00002147,0.00000642,-0.00002265,-0.00000929,-0.00003632,0.0
 0005026,0.00000220,-0.00000774,-0.00000380,-0.00049956,0.00143758,-0.0
 0016571,-0.00013785,-0.00019045,-0.00007520,-0.00000561,-0.00000560,-0
 .00002330,-0.00002373,0.00001877,-0.00000280,-0.00000550,-0.00001806,-
 0.00000732,-0.00000432,-0.00000180,-0.00000343,-0.00000221,0.00001785,
 -0.00000325,-0.00001884,0.00000232,0.00000693,-0.00001017,0.00004238,-
 0.00003572,0.00012672,-0.00035471,-0.00006830,-0.00190187,-0.00124845,
 -0.00071947,-0.00033030,-0.00046531,-0.00037667,0.00003819,0.00008249,
 0.00025985,0.01350342,0.00625691,-0.00814868,-0.00136469,-0.00000902,-
 0.00186040,0.00012870,0.00007725,-0.00006371,0.00002664,0.00003883,0.0
 0000811,-0.00000715,0.00001647,0.00000462,-0.00005393,-0.00006229,0.00
 000946,-0.18257978,-0.07465061,0.11168440,-0.01077560,-0.00658434,0.00
 730330,-0.01429182,-0.00720714,0.01207527,0.19691430,0.00004681,-0.000
 35337,-0.00012560,-0.00032275,-0.00062544,0.00070462,-0.00024964,0.000
 02048,-0.00054990,-0.00000039,-0.00007771,0.00004814,-0.00001507,0.000
 00288,-0.00000453,0.00009975,0.00002039,0.00002083,0.00003311,0.000027
 42,0.00002363,0.00021610,-0.00162654,-0.00099671,-0.00016082,0.0000711
 5,-0.00007933,-0.00001124,-0.00001337,-0.00001446,0.00001406,-0.000005
 51,-0.00001849,0.00000697,0.00000922,0.00000504,-0.00000214,0.00001193
 ,-0.00000335,0.00000554,0.00001131,-0.00004712,-0.00000236,0.00000301,
 -0.00004186,0.00000241,0.00018951,0.00001661,-0.00104930,-0.00030120,0
 .00001913,0.00303073,0.00216085,0.00063888,0.00018407,0.00057367,0.000
 29067,0.00001608,-0.00003045,-0.00026591,-0.01503902,-0.00807694,0.009
 97310,0.00083711,-0.00083504,0.00128928,-0.00013702,0.00001025,-0.0000
 5882,0.00000351,-0.00007888,0.00001276,-0.00000430,-0.00002946,-0.0000
 1806,-0.00003919,-0.00001930,0.00005299,-0.07518526,-0.09183050,0.0623
 1153,0.01815051,0.01239315,-0.01436335,-0.01218840,-0.00687654,0.01001
 750,0.08176014,0.09527502,0.00014572,0.00024277,0.00002569,0.00080803,
 0.00083260,0.00069835,-0.00020188,-0.00017262,0.00035052,0.00004632,0.
 00012707,-0.00002575,0.00003113,-0.00000425,-0.00004217,-0.00002097,-0
 .00010662,0.00006760,0.00000612,-0.00003295,0.00000275,0.00004318,-0.0
 0044105,0.00052174,0.00007188,-0.00007010,0.00004262,-0.00000790,-0.00
 000562,-0.00001728,-0.00003079,0.00002296,0.00003888,-0.00000769,-0.00
 001822,-0.00000033,-0.00000703,0.00000515,-0.00000578,-0.00000543,0.00
 001537,-0.00000784,-0.00002437,0.00001076,0.00001190,0.00000079,-0.000
 02962,-0.00007027,0.00104506,-0.00011980,-0.00045328,-0.00108167,-0.00
 330096,0.00039273,-0.00035375,-0.00015626,-0.00034202,-0.00012371,-0.0
 0002259,0.00019068,0.01459952,0.00970351,-0.01660783,-0.00207866,0.001
 88726,-0.00214948,0.00009280,0.00002138,-0.00009763,0.00004472,0.00000
 202,0.00000263,-0.00005779,-0.00001362,-0.00004772,-0.00004669,-0.0000
 5972,0.00009048,0.11409542,0.06262193,-0.13528302,0.00913577,0.0059747
 0,-0.00795525,-0.01464528,-0.00807627,0.01301121,-0.12147280,-0.068837
 22,0.14765789\\0.00000764,0.00000405,-0.00000440,-0.00000433,-0.000007
 05,0.00000092,0.00000170,0.00000382,0.00000131,0.00000242,0.00000204,-
 0.00000344,0.00000238,-0.00000341,-0.00000128,-0.00000109,0.00000061,0
 .00000279,-0.00000003,-0.00000087,-0.00000027,0.00000062,0.00000054,-0
 .00000070,-0.00000309,-0.00000006,0.00000209,0.00000130,-0.00000139,0.
 00000063,0.00000081,0.00000049,0.00000123,0.00000223,0.00000021,0.0000
 0199,-0.00000032,0.00000082,0.00000097,0.00000135,-0.00000026,0.000001
 70,0.00000027,0.00000065,0.00000053,-0.00000270,-0.00000071,-0.0000004
 4,-0.00000409,0.00000086,0.00000375,0.00000096,0.00000203,-0.00000516,
 -0.00000274,0.00000325,0.00000096,-0.00000054,-0.00000027,0.00000207,-
 0.00000184,-0.00000366,-0.00000081,0.00000017,-0.00000009,0.00000128,0
 .00000468,-0.00000259,-0.00000451,-0.00000027,-0.00000015,0.00000313,-
 0.00000351,0.00000096,0.00000246,-0.00000266,0.00000081,0.00000140,-0.
 00000271,0.00000137,0.00000054,0.00000076,0.00000177,-0.00000314,0.000
 00230,-0.00000292,-0.00000340,0.00000035,-0.00000086,-0.00000221\\\@
 The archive entry for this job was punched.


     ON THE SURVIVAL OF THE FITTEST -
 "STRONG REPRESENTATIVES FROM EACH PAST ERA THRIVE TODAY,
 SUCH AS PROGRAMMING IN THE THIRTY YEAR OLD LANGUAGE KNOWN
 AS FORTRAN, AND EVEN IN THE ANCIENT SCRIPT KNOWN AS DIRECT
 MACHINE CODE. SOME PEOPLE MIGHT LOOK ON SUCH RELICS AS LIVING
 FOSSILS; OTHERS WOULD POINT OUT THAT EVEN A VERY OLD SPECIES
 MIGHT STILL BE FILLING A PARTICULAR ECOLOGICAL NICHE."
     -- ALAN KAY, SCI.AM. SEPTEMBER 1984
 Job cpu time:       0 days  0 hours 57 minutes 57.6 seconds.
 Elapsed time:       0 days  0 hours  7 minutes 15.0 seconds.
 File lengths (MBytes):  RWF=    245 Int=      0 D2E=      0 Chk=     13 Scr=      1
 Normal termination of Gaussian 16 at Wed Sep 29 06:46:05 2021.
