 Entering Gaussian System, Link 0=/home/rong/g16/g16
 Input=/home/rong/g16/learning/cyclohexaneNCH2PhCH2CH3.gjf
 Output=/home/rong/g16/learning/cyclohexaneNCH2PhCH2CH3.log
 Initial command:
 /home/rong/g16/l1.exe "/tmp/Gau-252493.inp" -scrdir="/tmp/"
 Entering Link 1 = /home/rong/g16/l1.exe PID=    252495.
  
 Copyright (c) 1988-2019, Gaussian, Inc.  All Rights Reserved.
  
 This is part of the Gaussian(R) 16 program.  It is based on
 the Gaussian(R) 09 system (copyright 2009, Gaussian, Inc.),
 the Gaussian(R) 03 system (copyright 2003, Gaussian, Inc.),
 the Gaussian(R) 98 system (copyright 1998, Gaussian, Inc.),
 the Gaussian(R) 94 system (copyright 1995, Gaussian, Inc.),
 the Gaussian 92(TM) system (copyright 1992, Gaussian, Inc.),
 the Gaussian 90(TM) system (copyright 1990, Gaussian, Inc.),
 the Gaussian 88(TM) system (copyright 1988, Gaussian, Inc.),
 the Gaussian 86(TM) system (copyright 1986, Carnegie Mellon
 University), and the Gaussian 82(TM) system (copyright 1983,
 Carnegie Mellon University). Gaussian is a federally registered
 trademark of Gaussian, Inc.
  
 This software contains proprietary and confidential information,
 including trade secrets, belonging to Gaussian, Inc.
  
 This software is provided under written license and may be
 used, copied, transmitted, or stored only in accord with that
 written license.
  
 The following legend is applicable only to US Government
 contracts under FAR:
  
                    RESTRICTED RIGHTS LEGEND
  
 Use, reproduction and disclosure by the US Government is
 subject to restrictions as set forth in subparagraphs (a)
 and (c) of the Commercial Computer Software - Restricted
 Rights clause in FAR 52.227-19.
  
 Gaussian, Inc.
 340 Quinnipiac St., Bldg. 40, Wallingford CT 06492
  
  
 ---------------------------------------------------------------
 Warning -- This program may not be used in any manner that
 competes with the business of Gaussian, Inc. or will provide
 assistance to any competitor of Gaussian, Inc.  The licensee
 of this program is prohibited from giving any competitor of
 Gaussian, Inc. access to this program.  By using this program,
 the user acknowledges that Gaussian, Inc. is engaged in the
 business of creating and licensing software in the field of
 computational chemistry and represents and warrants to the
 licensee that it is not a competitor of Gaussian, Inc. and that
 it will not use this program in any manner prohibited above.
 ---------------------------------------------------------------
  

 Cite this work as:
 Gaussian 16, Revision C.01,
 M. J. Frisch, G. W. Trucks, H. B. Schlegel, G. E. Scuseria, 
 M. A. Robb, J. R. Cheeseman, G. Scalmani, V. Barone, 
 G. A. Petersson, H. Nakatsuji, X. Li, M. Caricato, A. V. Marenich, 
 J. Bloino, B. G. Janesko, R. Gomperts, B. Mennucci, H. P. Hratchian, 
 J. V. Ortiz, A. F. Izmaylov, J. L. Sonnenberg, D. Williams-Young, 
 F. Ding, F. Lipparini, F. Egidi, J. Goings, B. Peng, A. Petrone, 
 T. Henderson, D. Ranasinghe, V. G. Zakrzewski, J. Gao, N. Rega, 
 G. Zheng, W. Liang, M. Hada, M. Ehara, K. Toyota, R. Fukuda, 
 J. Hasegawa, M. Ishida, T. Nakajima, Y. Honda, O. Kitao, H. Nakai, 
 T. Vreven, K. Throssell, J. A. Montgomery, Jr., J. E. Peralta, 
 F. Ogliaro, M. J. Bearpark, J. J. Heyd, E. N. Brothers, K. N. Kudin, 
 V. N. Staroverov, T. A. Keith, R. Kobayashi, J. Normand, 
 K. Raghavachari, A. P. Rendell, J. C. Burant, S. S. Iyengar, 
 J. Tomasi, M. Cossi, J. M. Millam, M. Klene, C. Adamo, R. Cammi, 
 J. W. Ochterski, R. L. Martin, K. Morokuma, O. Farkas, 
 J. B. Foresman, and D. J. Fox, Gaussian, Inc., Wallingford CT, 2019.
 
 ******************************************
 Gaussian 16:  ES64L-G16RevC.01  3-Jul-2019
                24-Oct-2021 
 ******************************************
 %mem=30GB
 %chk=/home/rong/g16/learning/cyclohexaneNCH2PhCH2CH3.chk
 %nprocshared=16
 Will use up to   16 processors via shared memory.
 ----------------------------------------------------
 # opt freq b3lyp/6-31g(d) scrf=(smd,solvent=toluene)
 ----------------------------------------------------
 1/18=20,19=15,26=3,38=1/1,3;
 2/9=110,12=2,17=6,18=5,40=1/2;
 3/5=1,6=6,7=1,11=2,25=1,30=1,70=32201,71=1,72=13,74=-5/1,2,3;
 4//1;
 5/5=2,38=5,53=13/2;
 6/7=2,8=2,9=2,10=2,28=1/1;
 7//1,2,3,16;
 1/18=20,19=15,26=3/3(2);
 2/9=110/2;
 99//99;
 2/9=110/2;
 3/5=1,6=6,7=1,11=2,25=1,30=1,70=32205,71=1,72=13,74=-5/1,2,3;
 4/5=5,16=3,69=1/1;
 5/5=2,38=5,53=13/2;
 7//1,2,3,16;
 1/18=20,19=15,26=3/3(-5);
 2/9=110/2;
 6/7=2,8=2,9=2,10=2,19=2,28=1/1;
 99/9=1/99;
 -----------------------
 cyclohexaneNCH2PhCH2CH3
 -----------------------
 Symbolic Z-matrix:
 Charge =  0 Multiplicity = 1
 C                    -2.28763  -1.64635   0.00308 
 C                    -0.77252  -1.64635   0.00308 
 C                    -0.22059  -0.23527   0.00308 
 C                    -0.77025   0.56926   1.16374 
 C                    -2.28538   0.56992   1.16325 
 C                    -2.83818  -0.8407    1.16196 
 H                     0.89801  -0.26926   0.06579 
 H                    -0.39997  -2.19199   0.90964 
 H                    -2.66031  -1.21332  -0.96231 
 H                    -0.39772   0.13442   2.12835 
 H                    -0.39423   1.6234    1.10175 
 H                    -2.6607    1.11935   2.06537 
 H                    -2.65723   1.11653   0.25693 
 H                    -2.57217  -1.34642   2.12727 
 H                    -3.95672  -0.80564   1.09702 
 H                    -0.48921   0.27036  -0.96147 
 N                    -2.78019  -3.02887   0.08636 
 N                    -0.28038  -2.3674   -1.17963 
 C                    -3.15239  -3.33359   1.47542 
 H                    -4.00228  -2.74623   1.75399 
 H                    -3.39359  -4.37259   1.56031 
 C                    -3.95679  -3.18294  -0.78127 
 H                    -3.71884  -2.84507  -1.76824 
 H                    -4.76627  -2.60217  -0.39094 
 C                    -4.36684  -4.66649  -0.83148 
 H                    -5.02386  -4.88276  -0.01511 
 H                    -4.86797  -4.86695  -1.75537 
 H                    -3.49359  -5.28055  -0.75883 
 C                     0.36133  -3.62076  -0.7575 
 H                    -0.16241  -4.45078  -1.18373 
 H                     0.33561  -3.6928    0.30976 
 C                     0.69745  -1.53173  -1.89124 
 H                     1.10582  -2.08198  -2.71304 
 H                     0.21387  -0.65026  -2.25737 
 C                     1.83009  -1.13298  -0.92702 
 H                     2.76133  -1.50974  -1.29546 
 H                     1.87963  -0.06645  -0.85662 
 H                     1.63628  -1.5457    0.04097 
 C                    -1.97198  -3.00281   2.40753 
 C                    -2.0836   -1.96468   3.33289 
 C                    -0.79132  -3.74109   2.32675 
 C                    -1.0145   -1.66453   4.17679 
 H                    -3.01427  -1.38232   3.3958 
 C                     0.27784  -3.44162   3.1715 
 H                    -0.70325  -4.55945   1.59759 
 C                     0.1665   -2.40345   4.09635 
 H                    -1.10217  -0.84588   4.90577 
 H                     1.20847  -4.02416   3.10787 
 H                     1.00929  -2.16665   4.76187 
 C                     1.82441  -3.63553  -1.23789 
 C                     2.11001  -3.68192  -2.60272 
 C                     2.86405  -3.60241  -0.30858 
 C                     3.43498  -3.69587  -3.03802 
 H                     1.29016  -3.7088   -3.33508 
 C                     4.18947  -3.61536  -0.74389 
 H                     2.63913  -3.56566   0.76715 
 C                     4.47508  -3.66222  -2.10836 
 H                     3.66017  -3.73307  -4.11376 
 H                     5.00897  -3.58883  -0.01096 
 H                     5.51969  -3.67317  -2.45183 
 

 GradGradGradGradGradGradGradGradGradGradGradGradGradGradGradGradGradGrad
 Berny optimization.
 Initialization pass.
                           ----------------------------
                           !    Initial Parameters    !
                           ! (Angstroms and Degrees)  !
 --------------------------                            --------------------------
 ! Name  Definition              Value          Derivative Info.                !
 --------------------------------------------------------------------------------
 ! R1    R(1,2)                  1.5151         estimate D2E/DX2                !
 ! R2    R(1,6)                  1.515          estimate D2E/DX2                !
 ! R3    R(1,9)                  1.1218         estimate D2E/DX2                !
 ! R4    R(1,17)                 1.47           estimate D2E/DX2                !
 ! R5    R(2,3)                  1.5152         estimate D2E/DX2                !
 ! R6    R(2,8)                  1.1218         estimate D2E/DX2                !
 ! R7    R(2,18)                 1.47           estimate D2E/DX2                !
 ! R8    R(3,4)                  1.5154         estimate D2E/DX2                !
 ! R9    R(3,7)                  1.1209         estimate D2E/DX2                !
 ! R10   R(3,16)                 1.1217         estimate D2E/DX2                !
 ! R11   R(4,5)                  1.5151         estimate D2E/DX2                !
 ! R12   R(4,10)                 1.1218         estimate D2E/DX2                !
 ! R13   R(4,11)                 1.1209         estimate D2E/DX2                !
 ! R14   R(5,6)                  1.5151         estimate D2E/DX2                !
 ! R15   R(5,12)                 1.121          estimate D2E/DX2                !
 ! R16   R(5,13)                 1.1218         estimate D2E/DX2                !
 ! R17   R(6,14)                 1.1218         estimate D2E/DX2                !
 ! R18   R(6,15)                 1.121          estimate D2E/DX2                !
 ! R19   R(17,19)                1.47           estimate D2E/DX2                !
 ! R20   R(17,22)                1.47           estimate D2E/DX2                !
 ! R21   R(18,29)                1.47           estimate D2E/DX2                !
 ! R22   R(18,32)                1.47           estimate D2E/DX2                !
 ! R23   R(19,20)                1.07           estimate D2E/DX2                !
 ! R24   R(19,21)                1.07           estimate D2E/DX2                !
 ! R25   R(19,39)                1.54           estimate D2E/DX2                !
 ! R26   R(22,23)                1.07           estimate D2E/DX2                !
 ! R27   R(22,24)                1.07           estimate D2E/DX2                !
 ! R28   R(22,25)                1.54           estimate D2E/DX2                !
 ! R29   R(25,26)                1.07           estimate D2E/DX2                !
 ! R30   R(25,27)                1.07           estimate D2E/DX2                !
 ! R31   R(25,28)                1.07           estimate D2E/DX2                !
 ! R32   R(29,30)                1.07           estimate D2E/DX2                !
 ! R33   R(29,31)                1.07           estimate D2E/DX2                !
 ! R34   R(29,50)                1.54           estimate D2E/DX2                !
 ! R35   R(32,33)                1.07           estimate D2E/DX2                !
 ! R36   R(32,34)                1.07           estimate D2E/DX2                !
 ! R37   R(32,35)                1.54           estimate D2E/DX2                !
 ! R38   R(35,36)                1.07           estimate D2E/DX2                !
 ! R39   R(35,37)                1.07           estimate D2E/DX2                !
 ! R40   R(35,38)                1.07           estimate D2E/DX2                !
 ! R41   R(39,40)                1.3952         estimate D2E/DX2                !
 ! R42   R(39,41)                1.3948         estimate D2E/DX2                !
 ! R43   R(40,42)                1.3947         estimate D2E/DX2                !
 ! R44   R(40,43)                1.0997         estimate D2E/DX2                !
 ! R45   R(41,44)                1.3951         estimate D2E/DX2                !
 ! R46   R(41,45)                1.0996         estimate D2E/DX2                !
 ! R47   R(42,46)                1.3954         estimate D2E/DX2                !
 ! R48   R(42,47)                1.0997         estimate D2E/DX2                !
 ! R49   R(44,46)                1.3948         estimate D2E/DX2                !
 ! R50   R(44,48)                1.0998         estimate D2E/DX2                !
 ! R51   R(46,49)                1.0997         estimate D2E/DX2                !
 ! R52   R(50,51)                1.3952         estimate D2E/DX2                !
 ! R53   R(50,52)                1.3948         estimate D2E/DX2                !
 ! R54   R(51,53)                1.3947         estimate D2E/DX2                !
 ! R55   R(51,54)                1.0997         estimate D2E/DX2                !
 ! R56   R(52,55)                1.3951         estimate D2E/DX2                !
 ! R57   R(52,56)                1.0996         estimate D2E/DX2                !
 ! R58   R(53,57)                1.3954         estimate D2E/DX2                !
 ! R59   R(53,58)                1.0997         estimate D2E/DX2                !
 ! R60   R(55,57)                1.3948         estimate D2E/DX2                !
 ! R61   R(55,59)                1.0998         estimate D2E/DX2                !
 ! R62   R(57,60)                1.0997         estimate D2E/DX2                !
 ! A1    A(2,1,6)              111.3094         estimate D2E/DX2                !
 ! A2    A(2,1,9)              109.4042         estimate D2E/DX2                !
 ! A3    A(2,1,17)             109.5772         estimate D2E/DX2                !
 ! A4    A(6,1,9)              109.4074         estimate D2E/DX2                !
 ! A5    A(6,1,17)             109.5749         estimate D2E/DX2                !
 ! A6    A(9,1,17)             107.4863         estimate D2E/DX2                !
 ! A7    A(1,2,3)              111.3625         estimate D2E/DX2                !
 ! A8    A(1,2,8)              109.3968         estimate D2E/DX2                !
 ! A9    A(1,2,18)             109.5595         estimate D2E/DX2                !
 ! A10   A(3,2,8)              109.3908         estimate D2E/DX2                !
 ! A11   A(3,2,18)             109.5638         estimate D2E/DX2                !
 ! A12   A(8,2,18)             107.4839         estimate D2E/DX2                !
 ! A13   A(2,3,4)              111.2413         estimate D2E/DX2                !
 ! A14   A(2,3,7)              109.59           estimate D2E/DX2                !
 ! A15   A(2,3,16)             109.4252         estimate D2E/DX2                !
 ! A16   A(4,3,7)              109.586          estimate D2E/DX2                !
 ! A17   A(4,3,16)             109.4158         estimate D2E/DX2                !
 ! A18   A(7,3,16)             107.5042         estimate D2E/DX2                !
 ! A19   A(3,4,5)              111.2657         estimate D2E/DX2                !
 ! A20   A(3,4,10)             109.4111         estimate D2E/DX2                !
 ! A21   A(3,4,11)             109.5868         estimate D2E/DX2                !
 ! A22   A(5,4,10)             109.4233         estimate D2E/DX2                !
 ! A23   A(5,4,11)             109.5746         estimate D2E/DX2                !
 ! A24   A(10,4,11)            107.5            estimate D2E/DX2                !
 ! A25   A(4,5,6)              111.3744         estimate D2E/DX2                !
 ! A26   A(4,5,12)             109.5589         estimate D2E/DX2                !
 ! A27   A(4,5,13)             109.3871         estimate D2E/DX2                !
 ! A28   A(6,5,12)             109.5649         estimate D2E/DX2                !
 ! A29   A(6,5,13)             109.3914         estimate D2E/DX2                !
 ! A30   A(12,5,13)            107.4801         estimate D2E/DX2                !
 ! A31   A(1,6,5)              111.2962         estimate D2E/DX2                !
 ! A32   A(1,6,14)             109.4108         estimate D2E/DX2                !
 ! A33   A(1,6,15)             109.5686         estimate D2E/DX2                !
 ! A34   A(5,6,14)             109.42           estimate D2E/DX2                !
 ! A35   A(5,6,15)             109.5728         estimate D2E/DX2                !
 ! A36   A(14,6,15)            107.4917         estimate D2E/DX2                !
 ! A37   A(1,17,19)            109.4712         estimate D2E/DX2                !
 ! A38   A(1,17,22)            109.4712         estimate D2E/DX2                !
 ! A39   A(19,17,22)           109.4713         estimate D2E/DX2                !
 ! A40   A(2,18,29)            109.4712         estimate D2E/DX2                !
 ! A41   A(2,18,32)            109.4712         estimate D2E/DX2                !
 ! A42   A(29,18,32)           109.4713         estimate D2E/DX2                !
 ! A43   A(17,19,20)           109.4712         estimate D2E/DX2                !
 ! A44   A(17,19,21)           109.4712         estimate D2E/DX2                !
 ! A45   A(17,19,39)           109.4712         estimate D2E/DX2                !
 ! A46   A(20,19,21)           109.4713         estimate D2E/DX2                !
 ! A47   A(20,19,39)           109.4712         estimate D2E/DX2                !
 ! A48   A(21,19,39)           109.4712         estimate D2E/DX2                !
 ! A49   A(17,22,23)           109.4712         estimate D2E/DX2                !
 ! A50   A(17,22,24)           109.4712         estimate D2E/DX2                !
 ! A51   A(17,22,25)           109.4712         estimate D2E/DX2                !
 ! A52   A(23,22,24)           109.4712         estimate D2E/DX2                !
 ! A53   A(23,22,25)           109.4713         estimate D2E/DX2                !
 ! A54   A(24,22,25)           109.4712         estimate D2E/DX2                !
 ! A55   A(22,25,26)           109.4712         estimate D2E/DX2                !
 ! A56   A(22,25,27)           109.4712         estimate D2E/DX2                !
 ! A57   A(22,25,28)           109.4712         estimate D2E/DX2                !
 ! A58   A(26,25,27)           109.4713         estimate D2E/DX2                !
 ! A59   A(26,25,28)           109.4712         estimate D2E/DX2                !
 ! A60   A(27,25,28)           109.4712         estimate D2E/DX2                !
 ! A61   A(18,29,30)           109.4712         estimate D2E/DX2                !
 ! A62   A(18,29,31)           109.4712         estimate D2E/DX2                !
 ! A63   A(18,29,50)           109.4712         estimate D2E/DX2                !
 ! A64   A(30,29,31)           109.4712         estimate D2E/DX2                !
 ! A65   A(30,29,50)           109.4713         estimate D2E/DX2                !
 ! A66   A(31,29,50)           109.4712         estimate D2E/DX2                !
 ! A67   A(18,32,33)           109.4712         estimate D2E/DX2                !
 ! A68   A(18,32,34)           109.4712         estimate D2E/DX2                !
 ! A69   A(18,32,35)           109.4712         estimate D2E/DX2                !
 ! A70   A(33,32,34)           109.4712         estimate D2E/DX2                !
 ! A71   A(33,32,35)           109.4713         estimate D2E/DX2                !
 ! A72   A(34,32,35)           109.4712         estimate D2E/DX2                !
 ! A73   A(32,35,36)           109.4712         estimate D2E/DX2                !
 ! A74   A(32,35,37)           109.4712         estimate D2E/DX2                !
 ! A75   A(32,35,38)           109.4712         estimate D2E/DX2                !
 ! A76   A(36,35,37)           109.4713         estimate D2E/DX2                !
 ! A77   A(36,35,38)           109.4712         estimate D2E/DX2                !
 ! A78   A(37,35,38)           109.4712         estimate D2E/DX2                !
 ! A79   A(19,39,40)           119.9972         estimate D2E/DX2                !
 ! A80   A(19,39,41)           120.0043         estimate D2E/DX2                !
 ! A81   A(40,39,41)           119.9985         estimate D2E/DX2                !
 ! A82   A(39,40,42)           120.0086         estimate D2E/DX2                !
 ! A83   A(39,40,43)           119.9808         estimate D2E/DX2                !
 ! A84   A(42,40,43)           120.0106         estimate D2E/DX2                !
 ! A85   A(39,41,44)           120.0            estimate D2E/DX2                !
 ! A86   A(39,41,45)           120.008          estimate D2E/DX2                !
 ! A87   A(44,41,45)           119.992          estimate D2E/DX2                !
 ! A88   A(40,42,46)           119.9942         estimate D2E/DX2                !
 ! A89   A(40,42,47)           120.0128         estimate D2E/DX2                !
 ! A90   A(46,42,47)           119.993          estimate D2E/DX2                !
 ! A91   A(41,44,46)           120.0047         estimate D2E/DX2                !
 ! A92   A(41,44,48)           119.984          estimate D2E/DX2                !
 ! A93   A(46,44,48)           120.0113         estimate D2E/DX2                !
 ! A94   A(42,46,44)           119.994          estimate D2E/DX2                !
 ! A95   A(42,46,49)           119.9811         estimate D2E/DX2                !
 ! A96   A(44,46,49)           120.0249         estimate D2E/DX2                !
 ! A97   A(29,50,51)           119.9972         estimate D2E/DX2                !
 ! A98   A(29,50,52)           120.0043         estimate D2E/DX2                !
 ! A99   A(51,50,52)           119.9985         estimate D2E/DX2                !
 ! A100  A(50,51,53)           120.0086         estimate D2E/DX2                !
 ! A101  A(50,51,54)           119.9808         estimate D2E/DX2                !
 ! A102  A(53,51,54)           120.0105         estimate D2E/DX2                !
 ! A103  A(50,52,55)           120.0            estimate D2E/DX2                !
 ! A104  A(50,52,56)           120.008          estimate D2E/DX2                !
 ! A105  A(55,52,56)           119.992          estimate D2E/DX2                !
 ! A106  A(51,53,57)           119.9942         estimate D2E/DX2                !
 ! A107  A(51,53,58)           120.0128         estimate D2E/DX2                !
 ! A108  A(57,53,58)           119.993          estimate D2E/DX2                !
 ! A109  A(52,55,57)           120.0047         estimate D2E/DX2                !
 ! A110  A(52,55,59)           119.984          estimate D2E/DX2                !
 ! A111  A(57,55,59)           120.0113         estimate D2E/DX2                !
 ! A112  A(53,57,55)           119.994          estimate D2E/DX2                !
 ! A113  A(53,57,60)           119.9811         estimate D2E/DX2                !
 ! A114  A(55,57,60)           120.0249         estimate D2E/DX2                !
 ! D1    D(6,1,2,3)            -55.1928         estimate D2E/DX2                !
 ! D2    D(6,1,2,8)             65.8497         estimate D2E/DX2                !
 ! D3    D(6,1,2,18)          -176.5618         estimate D2E/DX2                !
 ! D4    D(9,1,2,3)             65.8411         estimate D2E/DX2                !
 ! D5    D(9,1,2,8)           -173.1163         estimate D2E/DX2                !
 ! D6    D(9,1,2,18)           -55.5279         estimate D2E/DX2                !
 ! D7    D(17,1,2,3)          -176.5529         estimate D2E/DX2                !
 ! D8    D(17,1,2,8)           -55.5104         estimate D2E/DX2                !
 ! D9    D(17,1,2,18)           62.0781         estimate D2E/DX2                !
 ! D10   D(2,1,6,5)             55.0823         estimate D2E/DX2                !
 ! D11   D(2,1,6,14)           -65.9633         estimate D2E/DX2                !
 ! D12   D(2,1,6,15)           176.4253         estimate D2E/DX2                !
 ! D13   D(9,1,6,5)            -65.9498         estimate D2E/DX2                !
 ! D14   D(9,1,6,14)           173.0046         estimate D2E/DX2                !
 ! D15   D(9,1,6,15)            55.3933         estimate D2E/DX2                !
 ! D16   D(17,1,6,5)           176.4437         estimate D2E/DX2                !
 ! D17   D(17,1,6,14)           55.3981         estimate D2E/DX2                !
 ! D18   D(17,1,6,15)          -62.2133         estimate D2E/DX2                !
 ! D19   D(2,1,17,19)           99.1664         estimate D2E/DX2                !
 ! D20   D(2,1,17,22)         -140.8336         estimate D2E/DX2                !
 ! D21   D(6,1,17,19)          -23.2332         estimate D2E/DX2                !
 ! D22   D(6,1,17,22)           96.7669         estimate D2E/DX2                !
 ! D23   D(9,1,17,19)         -142.0347         estimate D2E/DX2                !
 ! D24   D(9,1,17,22)          -22.0346         estimate D2E/DX2                !
 ! D25   D(1,2,3,4)             55.2571         estimate D2E/DX2                !
 ! D26   D(1,2,3,7)            176.5953         estimate D2E/DX2                !
 ! D27   D(1,2,3,16)           -65.7573         estimate D2E/DX2                !
 ! D28   D(8,2,3,4)            -65.7889         estimate D2E/DX2                !
 ! D29   D(8,2,3,7)             55.5492         estimate D2E/DX2                !
 ! D30   D(8,2,3,16)           173.1966         estimate D2E/DX2                !
 ! D31   D(18,2,3,4)           176.6237         estimate D2E/DX2                !
 ! D32   D(18,2,3,7)           -62.0382         estimate D2E/DX2                !
 ! D33   D(18,2,3,16)           55.6092         estimate D2E/DX2                !
 ! D34   D(1,2,18,29)         -111.4544         estimate D2E/DX2                !
 ! D35   D(1,2,18,32)          128.5456         estimate D2E/DX2                !
 ! D36   D(3,2,18,29)          126.0985         estimate D2E/DX2                !
 ! D37   D(3,2,18,32)            6.0985         estimate D2E/DX2                !
 ! D38   D(8,2,18,29)            7.3245         estimate D2E/DX2                !
 ! D39   D(8,2,18,32)         -112.6756         estimate D2E/DX2                !
 ! D40   D(2,3,4,5)            -55.2366         estimate D2E/DX2                !
 ! D41   D(2,3,4,10)            65.7936         estimate D2E/DX2                !
 ! D42   D(2,3,4,11)          -176.5742         estimate D2E/DX2                !
 ! D43   D(7,3,4,5)           -176.5771         estimate D2E/DX2                !
 ! D44   D(7,3,4,10)           -55.5468         estimate D2E/DX2                !
 ! D45   D(7,3,4,11)            62.0853         estimate D2E/DX2                !
 ! D46   D(16,3,4,5)            65.7833         estimate D2E/DX2                !
 ! D47   D(16,3,4,10)         -173.1864         estimate D2E/DX2                !
 ! D48   D(16,3,4,11)          -55.5543         estimate D2E/DX2                !
 ! D49   D(3,4,5,6)             55.2381         estimate D2E/DX2                !
 ! D50   D(3,4,5,12)           176.6158         estimate D2E/DX2                !
 ! D51   D(3,4,5,13)           -65.8064         estimate D2E/DX2                !
 ! D52   D(10,4,5,6)           -65.785          estimate D2E/DX2                !
 ! D53   D(10,4,5,12)           55.5927         estimate D2E/DX2                !
 ! D54   D(10,4,5,13)          173.1705         estimate D2E/DX2                !
 ! D55   D(11,4,5,6)           176.5828         estimate D2E/DX2                !
 ! D56   D(11,4,5,12)          -62.0395         estimate D2E/DX2                !
 ! D57   D(11,4,5,13)           55.5383         estimate D2E/DX2                !
 ! D58   D(4,5,6,1)            -55.1527         estimate D2E/DX2                !
 ! D59   D(4,5,6,14)            65.8876         estimate D2E/DX2                !
 ! D60   D(4,5,6,15)          -176.4932         estimate D2E/DX2                !
 ! D61   D(12,5,6,1)          -176.5268         estimate D2E/DX2                !
 ! D62   D(12,5,6,14)          -55.4866         estimate D2E/DX2                !
 ! D63   D(12,5,6,15)           62.1326         estimate D2E/DX2                !
 ! D64   D(13,5,6,1)            65.8893         estimate D2E/DX2                !
 ! D65   D(13,5,6,14)         -173.0704         estimate D2E/DX2                !
 ! D66   D(13,5,6,15)          -55.4512         estimate D2E/DX2                !
 ! D67   D(1,17,19,20)          67.0583         estimate D2E/DX2                !
 ! D68   D(1,17,19,21)        -172.9417         estimate D2E/DX2                !
 ! D69   D(1,17,19,39)         -52.9417         estimate D2E/DX2                !
 ! D70   D(22,17,19,20)        -52.9417         estimate D2E/DX2                !
 ! D71   D(22,17,19,21)         67.0583         estimate D2E/DX2                !
 ! D72   D(22,17,19,39)       -172.9417         estimate D2E/DX2                !
 ! D73   D(1,17,22,23)          53.0073         estimate D2E/DX2                !
 ! D74   D(1,17,22,24)         -66.9927         estimate D2E/DX2                !
 ! D75   D(1,17,22,25)         173.0073         estimate D2E/DX2                !
 ! D76   D(19,17,22,23)        173.0073         estimate D2E/DX2                !
 ! D77   D(19,17,22,24)         53.0073         estimate D2E/DX2                !
 ! D78   D(19,17,22,25)        -66.9927         estimate D2E/DX2                !
 ! D79   D(2,18,29,30)         118.637          estimate D2E/DX2                !
 ! D80   D(2,18,29,31)          -1.363          estimate D2E/DX2                !
 ! D81   D(2,18,29,50)        -121.363          estimate D2E/DX2                !
 ! D82   D(32,18,29,30)       -121.363          estimate D2E/DX2                !
 ! D83   D(32,18,29,31)        118.637          estimate D2E/DX2                !
 ! D84   D(32,18,29,50)         -1.363          estimate D2E/DX2                !
 ! D85   D(2,18,32,33)         176.1104         estimate D2E/DX2                !
 ! D86   D(2,18,32,34)         -63.8896         estimate D2E/DX2                !
 ! D87   D(2,18,32,35)          56.1104         estimate D2E/DX2                !
 ! D88   D(29,18,32,33)         56.1104         estimate D2E/DX2                !
 ! D89   D(29,18,32,34)        176.1104         estimate D2E/DX2                !
 ! D90   D(29,18,32,35)        -63.8896         estimate D2E/DX2                !
 ! D91   D(17,19,39,40)        113.5399         estimate D2E/DX2                !
 ! D92   D(17,19,39,41)        -66.4654         estimate D2E/DX2                !
 ! D93   D(20,19,39,40)         -6.4601         estimate D2E/DX2                !
 ! D94   D(20,19,39,41)        173.5347         estimate D2E/DX2                !
 ! D95   D(21,19,39,40)       -126.4601         estimate D2E/DX2                !
 ! D96   D(21,19,39,41)         53.5346         estimate D2E/DX2                !
 ! D97   D(17,22,25,26)         86.8554         estimate D2E/DX2                !
 ! D98   D(17,22,25,27)       -153.1446         estimate D2E/DX2                !
 ! D99   D(17,22,25,28)        -33.1446         estimate D2E/DX2                !
 ! D100  D(23,22,25,26)       -153.1446         estimate D2E/DX2                !
 ! D101  D(23,22,25,27)        -33.1446         estimate D2E/DX2                !
 ! D102  D(23,22,25,28)         86.8554         estimate D2E/DX2                !
 ! D103  D(24,22,25,26)        -33.1446         estimate D2E/DX2                !
 ! D104  D(24,22,25,27)         86.8554         estimate D2E/DX2                !
 ! D105  D(24,22,25,28)       -153.1446         estimate D2E/DX2                !
 ! D106  D(18,29,50,51)        -66.1732         estimate D2E/DX2                !
 ! D107  D(18,29,50,52)        113.8216         estimate D2E/DX2                !
 ! D108  D(30,29,50,51)         53.8268         estimate D2E/DX2                !
 ! D109  D(30,29,50,52)       -126.1785         estimate D2E/DX2                !
 ! D110  D(31,29,50,51)        173.8268         estimate D2E/DX2                !
 ! D111  D(31,29,50,52)         -6.1784         estimate D2E/DX2                !
 ! D112  D(18,32,35,36)        119.2504         estimate D2E/DX2                !
 ! D113  D(18,32,35,37)       -120.7496         estimate D2E/DX2                !
 ! D114  D(18,32,35,38)         -0.7496         estimate D2E/DX2                !
 ! D115  D(33,32,35,36)         -0.7496         estimate D2E/DX2                !
 ! D116  D(33,32,35,37)        119.2505         estimate D2E/DX2                !
 ! D117  D(33,32,35,38)       -120.7496         estimate D2E/DX2                !
 ! D118  D(34,32,35,36)       -120.7496         estimate D2E/DX2                !
 ! D119  D(34,32,35,37)         -0.7496         estimate D2E/DX2                !
 ! D120  D(34,32,35,38)        119.2504         estimate D2E/DX2                !
 ! D121  D(19,39,40,42)       -179.9729         estimate D2E/DX2                !
 ! D122  D(19,39,40,43)         -0.052          estimate D2E/DX2                !
 ! D123  D(41,39,40,42)          0.0323         estimate D2E/DX2                !
 ! D124  D(41,39,40,43)        179.9532         estimate D2E/DX2                !
 ! D125  D(19,39,41,44)       -179.9798         estimate D2E/DX2                !
 ! D126  D(19,39,41,45)         -0.0056         estimate D2E/DX2                !
 ! D127  D(40,39,41,44)          0.0149         estimate D2E/DX2                !
 ! D128  D(40,39,41,45)        179.9892         estimate D2E/DX2                !
 ! D129  D(39,40,42,46)         -0.0568         estimate D2E/DX2                !
 ! D130  D(39,40,42,47)        179.9619         estimate D2E/DX2                !
 ! D131  D(43,40,42,46)       -179.9777         estimate D2E/DX2                !
 ! D132  D(43,40,42,47)          0.041          estimate D2E/DX2                !
 ! D133  D(39,41,44,46)         -0.0376         estimate D2E/DX2                !
 ! D134  D(39,41,44,48)        179.975          estimate D2E/DX2                !
 ! D135  D(45,41,44,46)        179.9881         estimate D2E/DX2                !
 ! D136  D(45,41,44,48)          0.0007         estimate D2E/DX2                !
 ! D137  D(40,42,46,44)          0.0341         estimate D2E/DX2                !
 ! D138  D(40,42,46,49)       -179.9964         estimate D2E/DX2                !
 ! D139  D(47,42,46,44)       -179.9846         estimate D2E/DX2                !
 ! D140  D(47,42,46,49)         -0.0151         estimate D2E/DX2                !
 ! D141  D(41,44,46,42)          0.0131         estimate D2E/DX2                !
 ! D142  D(41,44,46,49)       -179.9563         estimate D2E/DX2                !
 ! D143  D(48,44,46,42)       -179.9995         estimate D2E/DX2                !
 ! D144  D(48,44,46,49)          0.0311         estimate D2E/DX2                !
 ! D145  D(29,50,51,53)       -179.9729         estimate D2E/DX2                !
 ! D146  D(29,50,51,54)         -0.052          estimate D2E/DX2                !
 ! D147  D(52,50,51,53)          0.0323         estimate D2E/DX2                !
 ! D148  D(52,50,51,54)        179.9532         estimate D2E/DX2                !
 ! D149  D(29,50,52,55)       -179.9798         estimate D2E/DX2                !
 ! D150  D(29,50,52,56)         -0.0056         estimate D2E/DX2                !
 ! D151  D(51,50,52,55)          0.0149         estimate D2E/DX2                !
 ! D152  D(51,50,52,56)        179.9892         estimate D2E/DX2                !
 ! D153  D(50,51,53,57)         -0.0568         estimate D2E/DX2                !
 ! D154  D(50,51,53,58)        179.9619         estimate D2E/DX2                !
 ! D155  D(54,51,53,57)       -179.9777         estimate D2E/DX2                !
 ! D156  D(54,51,53,58)          0.041          estimate D2E/DX2                !
 ! D157  D(50,52,55,57)         -0.0376         estimate D2E/DX2                !
 ! D158  D(50,52,55,59)        179.975          estimate D2E/DX2                !
 ! D159  D(56,52,55,57)        179.9881         estimate D2E/DX2                !
 ! D160  D(56,52,55,59)          0.0007         estimate D2E/DX2                !
 ! D161  D(51,53,57,55)          0.0341         estimate D2E/DX2                !
 ! D162  D(51,53,57,60)       -179.9964         estimate D2E/DX2                !
 ! D163  D(58,53,57,55)       -179.9846         estimate D2E/DX2                !
 ! D164  D(58,53,57,60)         -0.0151         estimate D2E/DX2                !
 ! D165  D(52,55,57,53)          0.0131         estimate D2E/DX2                !
 ! D166  D(52,55,57,60)       -179.9563         estimate D2E/DX2                !
 ! D167  D(59,55,57,53)       -179.9995         estimate D2E/DX2                !
 ! D168  D(59,55,57,60)          0.031          estimate D2E/DX2                !
 --------------------------------------------------------------------------------
 Trust Radius=3.00D-01 FncErr=1.00D-07 GrdErr=1.00D-06 EigMax=2.50D+02 EigMin=1.00D-04
 Number of steps in this run=    354 maximum allowed number of steps=    360.
 GradGradGradGradGradGradGradGradGradGradGradGradGradGradGradGradGradGrad

 Stoichiometry    C24H34N2
 Framework group  C1[X(C24H34N2)]
 Deg. of freedom   174
 Full point group                 C1      NOp   1
 Largest Abelian subgroup         C1      NOp   1
 Largest concise Abelian subgroup C1      NOp   1
                         Standard orientation:                         
 ---------------------------------------------------------------------
 Center     Atomic      Atomic             Coordinates (Angstroms)
 Number     Number       Type             X           Y           Z
 ---------------------------------------------------------------------
      1          6           0       -1.619822    1.019085    0.866226
      2          6           0       -0.342174    0.205360    0.834376
      3          6           0       -0.122643   -0.528772    2.141520
      4          6           0       -1.316499   -1.393582    2.492738
      5          6           0       -2.594030   -0.579669    2.525379
      6          6           0       -2.813714    0.155806    1.219141
      7          1           0        0.794678   -1.168194    2.063965
      8          1           0       -0.393873   -0.536610   -0.005368
      9          1           0       -1.518708    1.842202    1.621628
     10          1           0       -1.417032   -2.215447    1.735916
     11          1           0       -1.151584   -1.873888    3.492013
     12          1           0       -3.464953   -1.256168    2.726343
     13          1           0       -2.542035    0.161442    3.365927
     14          1           0       -2.992089   -0.587411    0.398069
     15          1           0       -3.730048    0.796613    1.298485
     16          1           0        0.053152    0.215272    2.962290
     17          7           0       -1.836608    1.647147   -0.445049
     18          7           0        0.799831    1.092461    0.570223
     19          6           0       -2.803651    0.851946   -1.215363
     20          1           0       -3.764330    0.907683   -0.747508
     21          1           0       -2.869148    1.237185   -2.211456
     22          6           0       -2.360810    3.007452   -0.256152
     23          1           0       -1.717203    3.549067    0.405152
     24          1           0       -3.343090    2.955871    0.164996
     25          6           0       -2.422540    3.727251   -1.616181
     26          1           0       -3.353982    3.506820   -2.094432
     27          1           0       -2.340440    4.783309   -1.464849
     28          1           0       -1.616086    3.391745   -2.234216
     29          6           0        1.344754    0.805472   -0.764542
     30          1           0        1.264456    1.678570   -1.377853
     31          1           0        0.792966    0.004438   -1.210384
     32          6           0        1.840608    0.866288    1.583400
     33          1           0        2.698713    1.462288    1.352447
     34          1           0        1.465365    1.139784    2.547399
     35          6           0        2.235985   -0.622079    1.589788
     36          1           0        3.274261   -0.716340    1.348962
     37          1           0        2.056109   -1.034735    2.560489
     38          1           0        1.652294   -1.149287    0.864353
     39          6           0       -2.339817   -0.615799   -1.262091
     40          6           0       -3.085349   -1.603760   -0.618207
     41          6           0       -1.174469   -0.957528   -1.948193
     42          6           0       -2.665190   -2.933026   -0.659898
     43          1           0       -4.003625   -1.333912   -0.076735
     44          6           0       -0.754575   -2.287295   -1.990822
     45          1           0       -0.586849   -0.179012   -2.455879
     46          6           0       -1.499622   -3.275004   -1.346716
     47          1           0       -3.252436   -3.711713   -0.151876
     48          1           0        0.164070   -2.556496   -2.532206
     49          1           0       -1.168571   -4.323158   -1.379500
     50          6           0        2.825358    0.401096   -0.638476
     51          6           0        3.768229    1.332711   -0.203094
     52          6           0        3.223776   -0.896515   -0.959439
     53          6           0        5.109301    0.966903   -0.089375
     54          1           0        3.453927    2.355862    0.049134
     55          6           0        4.565061   -1.262876   -0.844798
     56          1           0        2.480749   -1.630950   -1.302434
     57          6           0        5.507838   -0.331403   -0.409980
     58          1           0        5.852640    1.701337    0.253191
     59          1           0        4.878838   -2.286175   -1.097540
     60          1           0        6.565271   -0.619615   -0.320182
 ---------------------------------------------------------------------
 Rotational constants (GHZ):           0.3142834           0.1579328           0.1435251
 Standard basis: 6-31G(d) (6D, 7F)
 There are   458 symmetry adapted cartesian basis functions of A   symmetry.
 There are   458 symmetry adapted basis functions of A   symmetry.
   458 basis functions,   864 primitive gaussians,   458 cartesian basis functions
    96 alpha electrons       96 beta electrons
       nuclear repulsion energy      2582.7129043004 Hartrees.
 NAtoms=   60 NActive=   60 NUniq=   60 SFac= 1.00D+00 NAtFMM=   60 NAOKFM=T Big=T
 Integral buffers will be    131072 words long.
 Raffenetti 2 integral format.
 Two-electron integral symmetry is turned on.
 ------------------------------------------------------------------------------
 Polarizable Continuum Model (PCM)
 =================================
 Model                : PCM.
 Atomic radii         : SMD-Coulomb.
 Polarization charges : Total charges.
 Charge compensation  : None.
 Solution method      : On-the-fly selection.
 Cavity type          : VdW (van der Waals Surface) (Alpha=1.000).
 Cavity algorithm     : GePol (No added spheres)
                        Default sphere list used, NSphG=   60.
                        Lebedev-Laikov grids with approx.  5.0 points / Ang**2.
                        Smoothing algorithm: York/Karplus (Gamma=1.0000).
                        Polarization charges: spherical gaussians, with
                                              point-specific exponents (IZeta= 3).
                        Self-potential: point-specific (ISelfS= 7).
                        Self-field    : sphere-specific E.n sum rule (ISelfD= 2).
 1st derivatives      : Analytical E(r).r(x)/FMM algorithm (CHGder, D1EAlg=3).
                        Cavity 1st derivative terms included.
 Solvent              : Toluene, Eps=   2.374100 Eps(inf)=   2.238315
 ------------------------------------------------------------------------------
 ------------------------------------------------------------------------------
 Atomic radii for non-electrostatic terms: SMD-CDS.
 ------------------------------------------------------------------------------
 Nuclear repulsion after PCM non-electrostatic terms =     2582.6985810747 Hartrees.
 One-electron integrals computed using PRISM.
 NBasis=   458 RedAO= T EigKep=  4.41D-04  NBF=   458
 NBsUse=   458 1.00D-06 EigRej= -1.00D+00 NBFU=   458
 ExpMin= 1.61D-01 ExpMax= 4.17D+03 ExpMxC= 6.27D+02 IAcc=3 IRadAn=         5 AccDes= 0.00D+00
 Harris functional with IExCor=  402 and IRadAn=       5 diagonalized for initial guess.
 HarFok:  IExCor=  402 AccDes= 0.00D+00 IRadAn=         5 IDoV= 1 UseB2=F ITyADJ=14
 ICtDFT=  3500011 ScaDFX=  1.000000  1.000000  1.000000  1.000000
 FoFCou: FMM=F IPFlag=           0 FMFlag=      100000 FMFlg1=        2001
         NFxFlg=           0 DoJE=T BraDBF=F KetDBF=T FulRan=T
         wScrn=  0.000000 ICntrl=       500 IOpCl=  0 I1Cent=   200000004 NGrid=           0
         NMat0=    1 NMatS0=      1 NMatT0=    0 NMatD0=    1 NMtDS0=    0 NMtDT0=    0
 Petite list used in FoFCou.
 Requested convergence on RMS density matrix=1.00D-08 within 128 cycles.
 Requested convergence on MAX density matrix=1.00D-06.
 Requested convergence on             energy=1.00D-06.
 No special actions if energy rises.
 Inv3:  Mode=1 IEnd=    37807500.
 Iteration    1 A*A^-1 deviation from unit magnitude is 5.55D-15 for   3545.
 Iteration    1 A*A^-1 deviation from orthogonality  is 2.74D-15 for   3545   3461.
 Iteration    1 A^-1*A deviation from unit magnitude is 5.77D-15 for   3545.
 Iteration    1 A^-1*A deviation from orthogonality  is 1.55D-15 for   2458   1021.
 Error on total polarization charges =  0.04212
 SCF Done:  E(RB3LYP) =  -1044.28386073     A.U. after   13 cycles
            NFock= 13  Conv=0.35D-08     -V/T= 2.0080
 SMD-CDS (non-electrostatic) energy       (kcal/mol) =      -8.99
 (included in total energy above)

 **********************************************************************

            Population analysis using the SCF Density.

 **********************************************************************

 Orbital symmetries:
       Occupied  (A) (A) (A) (A) (A) (A) (A) (A) (A) (A) (A) (A)
                 (A) (A) (A) (A) (A) (A) (A) (A) (A) (A) (A) (A)
                 (A) (A) (A) (A) (A) (A) (A) (A) (A) (A) (A) (A)
                 (A) (A) (A) (A) (A) (A) (A) (A) (A) (A) (A) (A)
                 (A) (A) (A) (A) (A) (A) (A) (A) (A) (A) (A) (A)
                 (A) (A) (A) (A) (A) (A) (A) (A) (A) (A) (A) (A)
                 (A) (A) (A) (A) (A) (A) (A) (A) (A) (A) (A) (A)
                 (A) (A) (A) (A) (A) (A) (A) (A) (A) (A) (A) (A)
       Virtual   (A) (A) (A) (A) (A) (A) (A) (A) (A) (A) (A) (A)
                 (A) (A) (A) (A) (A) (A) (A) (A) (A) (A) (A) (A)
                 (A) (A) (A) (A) (A) (A) (A) (A) (A) (A) (A) (A)
                 (A) (A) (A) (A) (A) (A) (A) (A) (A) (A) (A) (A)
                 (A) (A) (A) (A) (A) (A) (A) (A) (A) (A) (A) (A)
                 (A) (A) (A) (A) (A) (A) (A) (A) (A) (A) (A) (A)
                 (A) (A) (A) (A) (A) (A) (A) (A) (A) (A) (A) (A)
                 (A) (A) (A) (A) (A) (A) (A) (A) (A) (A) (A) (A)
                 (A) (A) (A) (A) (A) (A) (A) (A) (A) (A) (A) (A)
                 (A) (A) (A) (A) (A) (A) (A) (A) (A) (A) (A) (A)
                 (A) (A) (A) (A) (A) (A) (A) (A) (A) (A) (A) (A)
                 (A) (A) (A) (A) (A) (A) (A) (A) (A) (A) (A) (A)
                 (A) (A) (A) (A) (A) (A) (A) (A) (A) (A) (A) (A)
                 (A) (A) (A) (A) (A) (A) (A) (A) (A) (A) (A) (A)
                 (A) (A) (A) (A) (A) (A) (A) (A) (A) (A) (A) (A)
                 (A) (A) (A) (A) (A) (A) (A) (A) (A) (A) (A) (A)
                 (A) (A) (A) (A) (A) (A) (A) (A) (A) (A) (A) (A)
                 (A) (A) (A) (A) (A) (A) (A) (A) (A) (A) (A) (A)
                 (A) (A) (A) (A) (A) (A) (A) (A) (A) (A) (A) (A)
                 (A) (A) (A) (A) (A) (A) (A) (A) (A) (A) (A) (A)
                 (A) (A) (A) (A) (A) (A) (A) (A) (A) (A) (A) (A)
                 (A) (A) (A) (A) (A) (A) (A) (A) (A) (A) (A) (A)
                 (A) (A) (A) (A) (A) (A) (A) (A) (A) (A) (A) (A)
                 (A) (A) (A) (A) (A) (A) (A) (A) (A) (A) (A) (A)
                 (A) (A) (A) (A) (A) (A) (A) (A) (A) (A) (A) (A)
                 (A) (A) (A) (A) (A) (A) (A) (A) (A) (A) (A) (A)
                 (A) (A) (A) (A) (A) (A) (A) (A) (A) (A) (A) (A)
                 (A) (A) (A) (A) (A) (A) (A) (A) (A) (A) (A) (A)
                 (A) (A) (A) (A) (A) (A) (A) (A) (A) (A) (A) (A)
                 (A) (A) (A) (A) (A) (A) (A) (A) (A) (A) (A) (A)
                 (A) (A)
 The electronic state is 1-A.
 Alpha  occ. eigenvalues --  -14.30479 -14.29457 -10.19680 -10.19465 -10.19345
 Alpha  occ. eigenvalues --  -10.18971 -10.18870 -10.18808 -10.18598 -10.18598
 Alpha  occ. eigenvalues --  -10.18384 -10.18367 -10.18299 -10.18214 -10.18176
 Alpha  occ. eigenvalues --  -10.18110 -10.18058 -10.17951 -10.17596 -10.17397
 Alpha  occ. eigenvalues --  -10.16273 -10.15956 -10.15494 -10.14327 -10.13926
 Alpha  occ. eigenvalues --  -10.13911  -0.92760  -0.90832  -0.85947  -0.84652
 Alpha  occ. eigenvalues --   -0.80483  -0.77396  -0.75604  -0.75404  -0.74966
 Alpha  occ. eigenvalues --   -0.73889  -0.73220  -0.70937  -0.70209  -0.66566
 Alpha  occ. eigenvalues --   -0.65822  -0.62648  -0.61407  -0.59423  -0.59131
 Alpha  occ. eigenvalues --   -0.59020  -0.57443  -0.55611  -0.55118  -0.54084
 Alpha  occ. eigenvalues --   -0.51951  -0.50314  -0.48678  -0.47457  -0.46662
 Alpha  occ. eigenvalues --   -0.46301  -0.45741  -0.45526  -0.44932  -0.44677
 Alpha  occ. eigenvalues --   -0.43931  -0.42712  -0.42285  -0.41689  -0.41202
 Alpha  occ. eigenvalues --   -0.40902  -0.40042  -0.39561  -0.39351  -0.38653
 Alpha  occ. eigenvalues --   -0.38187  -0.37814  -0.37363  -0.36299  -0.35870
 Alpha  occ. eigenvalues --   -0.35689  -0.35142  -0.34652  -0.34146  -0.34008
 Alpha  occ. eigenvalues --   -0.33337  -0.33253  -0.32710  -0.32518  -0.31728
 Alpha  occ. eigenvalues --   -0.31050  -0.30745  -0.29067  -0.28358  -0.25731
 Alpha  occ. eigenvalues --   -0.24326  -0.23587  -0.22966  -0.21634  -0.19898
 Alpha  occ. eigenvalues --   -0.18498
 Alpha virt. eigenvalues --   -0.00904  -0.00268   0.00101   0.00778   0.07773
 Alpha virt. eigenvalues --    0.08655   0.09574   0.10611   0.10960   0.11571
 Alpha virt. eigenvalues --    0.12482   0.13564   0.13864   0.13942   0.14240
 Alpha virt. eigenvalues --    0.14665   0.14911   0.15776   0.16279   0.16445
 Alpha virt. eigenvalues --    0.17320   0.17392   0.17899   0.17972   0.18450
 Alpha virt. eigenvalues --    0.18998   0.19221   0.19541   0.19779   0.19875
 Alpha virt. eigenvalues --    0.20359   0.21238   0.21681   0.22004   0.22392
 Alpha virt. eigenvalues --    0.22805   0.23189   0.23662   0.24328   0.25197
 Alpha virt. eigenvalues --    0.25359   0.25422   0.26101   0.26912   0.27701
 Alpha virt. eigenvalues --    0.28209   0.29035   0.29190   0.29863   0.30320
 Alpha virt. eigenvalues --    0.30723   0.31530   0.31802   0.32226   0.32753
 Alpha virt. eigenvalues --    0.33450   0.33994   0.34567   0.35625   0.36105
 Alpha virt. eigenvalues --    0.36817   0.37654   0.40016   0.40686   0.46885
 Alpha virt. eigenvalues --    0.47805   0.51572   0.52616   0.53015   0.53110
 Alpha virt. eigenvalues --    0.53634   0.53784   0.54469   0.55231   0.55468
 Alpha virt. eigenvalues --    0.56148   0.56501   0.56963   0.57274   0.58034
 Alpha virt. eigenvalues --    0.58324   0.58724   0.59047   0.59682   0.60478
 Alpha virt. eigenvalues --    0.60665   0.60884   0.60967   0.61330   0.61880
 Alpha virt. eigenvalues --    0.62115   0.62489   0.62846   0.63361   0.64443
 Alpha virt. eigenvalues --    0.64924   0.65877   0.65954   0.66476   0.66871
 Alpha virt. eigenvalues --    0.67569   0.68716   0.69204   0.69370   0.70590
 Alpha virt. eigenvalues --    0.71509   0.72529   0.72852   0.74117   0.74554
 Alpha virt. eigenvalues --    0.76377   0.77366   0.77737   0.78953   0.80489
 Alpha virt. eigenvalues --    0.80919   0.81075   0.81645   0.82291   0.82452
 Alpha virt. eigenvalues --    0.83140   0.83366   0.84024   0.84591   0.84685
 Alpha virt. eigenvalues --    0.85067   0.85340   0.86621   0.86879   0.87493
 Alpha virt. eigenvalues --    0.87715   0.88216   0.88921   0.89355   0.89762
 Alpha virt. eigenvalues --    0.90472   0.90789   0.90949   0.91027   0.91808
 Alpha virt. eigenvalues --    0.93068   0.93248   0.93888   0.94284   0.94839
 Alpha virt. eigenvalues --    0.95143   0.95507   0.95706   0.96502   0.97888
 Alpha virt. eigenvalues --    0.98368   0.98756   0.99363   0.99463   1.00679
 Alpha virt. eigenvalues --    1.01269   1.01980   1.02224   1.02648   1.04083
 Alpha virt. eigenvalues --    1.04958   1.06066   1.07305   1.08560   1.08802
 Alpha virt. eigenvalues --    1.09830   1.10827   1.11871   1.12765   1.13801
 Alpha virt. eigenvalues --    1.14642   1.15980   1.16347   1.17902   1.19444
 Alpha virt. eigenvalues --    1.20199   1.21155   1.21683   1.22731   1.24376
 Alpha virt. eigenvalues --    1.24558   1.26164   1.28545   1.31676   1.32905
 Alpha virt. eigenvalues --    1.33333   1.35675   1.35917   1.37380   1.39091
 Alpha virt. eigenvalues --    1.40536   1.42729   1.43716   1.44889   1.46716
 Alpha virt. eigenvalues --    1.47111   1.47310   1.48321   1.49202   1.49602
 Alpha virt. eigenvalues --    1.50663   1.51349   1.52057   1.53432   1.54653
 Alpha virt. eigenvalues --    1.55177   1.56795   1.58380   1.59168   1.60839
 Alpha virt. eigenvalues --    1.63244   1.67847   1.68972   1.69949   1.71480
 Alpha virt. eigenvalues --    1.72438   1.73649   1.75994   1.77577   1.78834
 Alpha virt. eigenvalues --    1.79891   1.81083   1.82009   1.83188   1.83604
 Alpha virt. eigenvalues --    1.83694   1.84956   1.86661   1.86970   1.88239
 Alpha virt. eigenvalues --    1.89378   1.89889   1.91044   1.91765   1.92714
 Alpha virt. eigenvalues --    1.93325   1.93972   1.94258   1.95734   1.96591
 Alpha virt. eigenvalues --    1.97241   1.97617   1.98407   1.99121   1.99734
 Alpha virt. eigenvalues --    2.01648   2.02542   2.03862   2.03925   2.05022
 Alpha virt. eigenvalues --    2.05342   2.06980   2.07915   2.08301   2.09128
 Alpha virt. eigenvalues --    2.10254   2.11389   2.12029   2.12637   2.13688
 Alpha virt. eigenvalues --    2.14283   2.15722   2.16376   2.16727   2.17500
 Alpha virt. eigenvalues --    2.18717   2.19585   2.20052   2.20919   2.21754
 Alpha virt. eigenvalues --    2.23116   2.24053   2.24458   2.25822   2.27000
 Alpha virt. eigenvalues --    2.28158   2.28693   2.29310   2.30796   2.32135
 Alpha virt. eigenvalues --    2.33422   2.34158   2.34480   2.36110   2.36659
 Alpha virt. eigenvalues --    2.37542   2.38669   2.41194   2.41806   2.42183
 Alpha virt. eigenvalues --    2.43350   2.45204   2.46490   2.47048   2.48664
 Alpha virt. eigenvalues --    2.50767   2.51368   2.54611   2.56359   2.57644
 Alpha virt. eigenvalues --    2.58666   2.59797   2.60205   2.62124   2.63035
 Alpha virt. eigenvalues --    2.64631   2.65245   2.67118   2.67721   2.68902
 Alpha virt. eigenvalues --    2.69766   2.70121   2.71578   2.72978   2.74411
 Alpha virt. eigenvalues --    2.74765   2.76205   2.76700   2.77316   2.78247
 Alpha virt. eigenvalues --    2.78434   2.79667   2.80430   2.82232   2.84522
 Alpha virt. eigenvalues --    2.85790   2.86988   2.95036   2.97788   3.00184
 Alpha virt. eigenvalues --    3.01776   3.04517   3.07462   3.08562   3.41482
 Alpha virt. eigenvalues --    3.42243   4.11973   4.13893   4.14600   4.16771
 Alpha virt. eigenvalues --    4.20061   4.22409   4.23942   4.27275   4.28512
 Alpha virt. eigenvalues --    4.29792   4.38233   4.38862   4.41633   4.41987
 Alpha virt. eigenvalues --    4.43840   4.46881   4.48822   4.49218   4.58187
 Alpha virt. eigenvalues --    4.59886   4.63538   4.70758   4.72001   4.77965
 Alpha virt. eigenvalues --    4.82487   4.85974
          Condensed to atoms (all electrons):
 Mulliken charges:
               1
     1  C    0.056884
     2  C    0.049730
     3  C   -0.294319
     4  C   -0.271722
     5  C   -0.253301
     6  C   -0.223138
     7  H    0.158049
     8  H    0.135825
     9  H    0.112566
    10  H    0.123049
    11  H    0.112046
    12  H    0.105099
    13  H    0.116360
    14  H    0.051471
    15  H    0.111895
    16  H    0.119194
    17  N   -0.415399
    18  N   -0.418263
    19  C   -0.176332
    20  H    0.137872
    21  H    0.165272
    22  C   -0.120598
    23  H    0.156212
    24  H    0.120417
    25  C   -0.477555
    26  H    0.151102
    27  H    0.149425
    28  H    0.161736
    29  C   -0.174997
    30  H    0.149454
    31  H    0.139914
    32  C   -0.133833
    33  H    0.156028
    34  H    0.147791
    35  C   -0.531507
    36  H    0.151419
    37  H    0.176178
    38  H    0.193849
    39  C    0.103895
    40  C   -0.201140
    41  C   -0.209728
    42  C   -0.141445
    43  H    0.210838
    44  C   -0.140307
    45  H    0.169864
    46  C   -0.140633
    47  H    0.145491
    48  H    0.145615
    49  H    0.143101
    50  C    0.101155
    51  C   -0.208159
    52  C   -0.192045
    53  C   -0.142247
    54  H    0.168632
    55  C   -0.139964
    56  H    0.139324
    57  C   -0.143535
    58  H    0.139292
    59  H    0.135955
    60  H    0.138164
 Sum of Mulliken charges =  -0.00000
 Mulliken charges with hydrogens summed into heavy atoms:
               1
     1  C    0.169451
     2  C    0.185555
     3  C   -0.017077
     4  C   -0.036628
     5  C   -0.031841
     6  C   -0.059772
    17  N   -0.415399
    18  N   -0.418263
    19  C    0.126812
    22  C    0.156032
    25  C   -0.015292
    29  C    0.114372
    32  C    0.169986
    35  C   -0.010061
    39  C    0.103895
    40  C    0.009698
    41  C   -0.039864
    42  C    0.004047
    44  C    0.005308
    46  C    0.002468
    50  C    0.101155
    51  C   -0.039527
    52  C   -0.052721
    53  C   -0.002955
    55  C   -0.004008
    57  C   -0.005371
 Electronic spatial extent (au):  <R**2>=           8740.6038
 Charge=             -0.0000 electrons
 Dipole moment (field-independent basis, Debye):
    X=             -0.5937    Y=             -0.9595    Z=             -0.2646  Tot=              1.1590
 Quadrupole moment (field-independent basis, Debye-Ang):
   XX=           -150.5811   YY=           -152.2156   ZZ=           -162.7900
   XY=             -0.7709   XZ=              1.5145   YZ=              2.3211
 Traceless Quadrupole moment (field-independent basis, Debye-Ang):
   XX=              4.6144   YY=              2.9800   ZZ=             -7.5944
   XY=             -0.7709   XZ=              1.5145   YZ=              2.3211
 Octapole moment (field-independent basis, Debye-Ang**2):
  XXX=             14.1061  YYY=             -7.1670  ZZZ=              3.4256  XYY=              2.5801
  XXY=              5.5906  XXZ=             11.6726  XZZ=              2.7139  YZZ=              9.8306
  YYZ=             -2.5880  XYZ=             15.4683
 Hexadecapole moment (field-independent basis, Debye-Ang**3):
 XXXX=          -6781.5832 YYYY=          -2728.1485 ZZZZ=          -2055.2882 XXXY=              3.7425
 XXXZ=             54.3242 YYYX=             12.6134 YYYZ=             35.1424 ZZZX=             27.7240
 ZZZY=             -4.7658 XXYY=          -1593.8969 XXZZ=          -1647.3524 YYZZ=           -839.7594
 XXYZ=             15.2538 YYXZ=            -25.7180 ZZXY=            -39.4537
 N-N= 2.582698581075D+03 E-N=-7.585113874855D+03  KE= 1.035972505467D+03
 D1PCM: PCM CHGder 1st derivatives, ID1Alg=3 FixD1E=F DoIter=F DoCFld=F I1PDM=0.
 Calling FoFJK, ICntrl=      2127 FMM=T ISym2X=0 I1Cent= 0 IOpClX= 0 NMat=1 NMatS=1 NMatT=0.
 ***** Axes restored to original set *****
 -------------------------------------------------------------------
 Center     Atomic                   Forces (Hartrees/Bohr)
 Number     Number              X              Y              Z
 -------------------------------------------------------------------
      1        6          -0.009706919    0.004267047   -0.002221556
      2        6           0.008618818    0.002263575   -0.002969759
      3        6          -0.009102377    0.033314919    0.020297805
      4        6           0.008494418    0.013590866    0.011353977
      5        6          -0.015355776    0.019468520    0.005802868
      6        6          -0.021116905    0.028312099   -0.014508004
      7        1          -0.068483960    0.024282843    0.021763367
      8        1          -0.008018074    0.020469159   -0.015695240
      9        1           0.010118471   -0.004037681    0.010929445
     10        1          -0.003449049    0.007255028   -0.011395365
     11        1          -0.002752235   -0.012275755    0.003229501
     12        1           0.001584746   -0.003250589   -0.011302090
     13        1           0.003871560   -0.002904617    0.010955376
     14        1          -0.015749968    0.051854883   -0.075266815
     15        1           0.011103584    0.001747461    0.001123974
     16        1          -0.000414846   -0.001244016    0.018563302
     17        7          -0.008485278   -0.004586232   -0.008426556
     18        7           0.000513264    0.001825926   -0.009233727
     19        6           0.033977813    0.003342426   -0.002579945
     20        1          -0.018722920    0.002944913    0.011234515
     21        1          -0.003752715   -0.015707176    0.001956309
     22        6           0.014270591   -0.033999728    0.012645146
     23        1           0.006567244    0.006634658   -0.013414550
     24        1          -0.020407498    0.014178867    0.002421530
     25        6           0.000136532    0.024424522   -0.000466905
     26        1          -0.011394748   -0.009036154    0.011363056
     27        1          -0.010345814   -0.006742775   -0.013668281
     28        1           0.013509474   -0.010839305   -0.000950683
     29        6           0.028903509    0.010278038   -0.026614142
     30        1          -0.008973009   -0.016596604   -0.004885948
     31        1           0.003683412   -0.006345613    0.006946535
     32        6          -0.004663186    0.004172664    0.014850029
     33        1          -0.005979162    0.012069785   -0.008650966
     34        1          -0.006516310    0.006097557   -0.012010151
     35        6           0.037042979   -0.003540953   -0.044139176
     36        1           0.016392691    0.002989432   -0.004772179
     37        1           0.022087853    0.012667398   -0.010033819
     38        1           0.015739920   -0.007585044    0.006911383
     39        6          -0.011394491   -0.044931003    0.009421748
     40        6           0.010160137   -0.021007388    0.055008895
     41        6          -0.006795405   -0.011116471    0.007877166
     42        6          -0.002810669    0.007213287    0.009076425
     43        1           0.006943025   -0.013918739    0.024535363
     44        6           0.011127901   -0.004643452    0.003964782
     45        1          -0.004465411    0.006361655    0.009435282
     46        6           0.011086392    0.001233240    0.003480289
     47        1           0.000094026   -0.006626639   -0.005387533
     48        1          -0.007019102    0.004094594    0.000826859
     49        1          -0.006379814   -0.001630667   -0.005204298
     50        6          -0.011742965   -0.037941546    0.014888593
     51        6           0.008714145   -0.022053014   -0.008163394
     52        6           0.005851077   -0.016265980    0.003338379
     53        6          -0.000299382   -0.000103798   -0.010452097
     54        1           0.008310373   -0.006937685    0.005026839
     55        6           0.008222509   -0.002745681    0.008016435
     56        1           0.001456030   -0.000181587   -0.008320261
     57        6           0.011126665    0.001135387   -0.001496953
     58        1          -0.001706938    0.000272521    0.007932514
     59        1          -0.005900208   -0.000137503   -0.005485081
     60        1          -0.007804026    0.000170124    0.002537789
 -------------------------------------------------------------------
 Cartesian Forces:  Max     0.075266815 RMS     0.015938396

 GradGradGradGradGradGradGradGradGradGradGradGradGradGradGradGradGradGrad
 Berny optimization.
 FormGI is forming the generalized inverse of G from B-inverse, IUseBI=4.
 Internal  Forces:  Max     0.266142418 RMS     0.044064136
 Search for a local minimum.
 Step number   1 out of a maximum of  354
 All quantities printed in internal units (Hartrees-Bohrs-Radians)
 Mixed Optimization -- RFO/linear search
 Second derivative matrix not updated -- first step.
 ITU=  0
     Eigenvalues ---    0.00237   0.00237   0.00237   0.00237   0.00751
     Eigenvalues ---    0.00756   0.00766   0.00766   0.00766   0.00766
     Eigenvalues ---    0.00766   0.00766   0.00856   0.01388   0.01388
     Eigenvalues ---    0.02146   0.02152   0.02152   0.02153   0.02153
     Eigenvalues ---    0.02154   0.02154   0.02155   0.02155   0.02155
     Eigenvalues ---    0.02155   0.02155   0.02155   0.02156   0.02156
     Eigenvalues ---    0.02157   0.02157   0.02171   0.03189   0.03189
     Eigenvalues ---    0.03978   0.04145   0.04195   0.04389   0.04502
     Eigenvalues ---    0.04502   0.04841   0.04951   0.05012   0.05269
     Eigenvalues ---    0.05269   0.05482   0.05496   0.05496   0.05658
     Eigenvalues ---    0.05679   0.05720   0.05720   0.05720   0.05720
     Eigenvalues ---    0.05999   0.06087   0.06518   0.06518   0.06985
     Eigenvalues ---    0.08175   0.08180   0.08186   0.08199   0.08767
     Eigenvalues ---    0.08860   0.08860   0.09364   0.09364   0.09574
     Eigenvalues ---    0.12082   0.12453   0.12453   0.12902   0.12902
     Eigenvalues ---    0.13035   0.15107   0.16000   0.16000   0.16000
     Eigenvalues ---    0.16000   0.16000   0.16000   0.16000   0.16000
     Eigenvalues ---    0.16000   0.16000   0.16000   0.16000   0.16000
     Eigenvalues ---    0.16000   0.16000   0.16000   0.16276   0.16276
     Eigenvalues ---    0.16276   0.16276   0.16991   0.17281   0.20300
     Eigenvalues ---    0.21985   0.21985   0.22000   0.22000   0.22000
     Eigenvalues ---    0.22000   0.22022   0.22022   0.23486   0.23486
     Eigenvalues ---    0.25000   0.25000   0.28519   0.28519   0.28519
     Eigenvalues ---    0.28519   0.28636   0.29143   0.29201   0.30833
     Eigenvalues ---    0.30841   0.30842   0.31380   0.31384   0.31385
     Eigenvalues ---    0.31386   0.31386   0.31394   0.31465   0.31467
     Eigenvalues ---    0.31472   0.31476   0.33709   0.33709   0.33718
     Eigenvalues ---    0.33718   0.33718   0.33718   0.33720   0.33720
     Eigenvalues ---    0.33726   0.33726   0.35740   0.35740   0.35740
     Eigenvalues ---    0.35740   0.35740   0.35740   0.37230   0.37230
     Eigenvalues ---    0.37230   0.37230   0.37230   0.37230   0.37230
     Eigenvalues ---    0.37230   0.37230   0.37230   0.37230   0.37230
     Eigenvalues ---    0.37230   0.37230   0.42121   0.42121   0.42300
     Eigenvalues ---    0.42300   0.46412   0.46412   0.46453   0.46453
     Eigenvalues ---    0.46466   0.46466   0.46497   0.46497
 RFO step:  Lambda=-7.36118430D-01 EMin= 2.36824153D-03
 Linear search not attempted -- first point.
 Maximum step size (   0.300) exceeded in Quadratic search.
    -- Step size scaled by   0.418
 Iteration  1 RMS(Cart)=  0.23963119 RMS(Int)=  0.00767517
 Iteration  2 RMS(Cart)=  0.06533272 RMS(Int)=  0.00059745
 Iteration  3 RMS(Cart)=  0.00199300 RMS(Int)=  0.00033879
 Iteration  4 RMS(Cart)=  0.00000104 RMS(Int)=  0.00033879
 Iteration  5 RMS(Cart)=  0.00000000 RMS(Int)=  0.00033879
 Variable       Old X    -DE/DX   Delta X   Delta X   Delta X     New X
                                 (Linear)    (Quad)   (Total)
    R1        2.86314   0.03719   0.00000   0.01550   0.01544   2.87858
    R2        2.86291   0.00363   0.00000   0.00103   0.00108   2.86398
    R3        2.11985  -0.01433   0.00000  -0.00570  -0.00570   2.11415
    R4        2.77790   0.11531   0.00000   0.04403   0.04403   2.82193
    R5        2.86327   0.05350   0.00000   0.02136   0.02133   2.88461
    R6        2.11983  -0.02530   0.00000  -0.01006  -0.01006   2.10977
    R7        2.77790   0.13950   0.00000   0.05326   0.05326   2.83116
    R8        2.86376   0.00244   0.00000   0.00140   0.00135   2.86511
    R9        2.11814  -0.06786   0.00000  -0.02696  -0.02696   2.09118
   R10        2.11967  -0.01642   0.00000  -0.00653  -0.00653   2.11314
   R11        2.86317   0.00215   0.00000   0.00022   0.00028   2.86346
   R12        2.11982  -0.01376   0.00000  -0.00547  -0.00547   2.11435
   R13        2.11821  -0.01265   0.00000  -0.00502  -0.00502   2.11319
   R14        2.86307  -0.01180   0.00000  -0.00469  -0.00466   2.85841
   R15        2.11830  -0.01122   0.00000  -0.00446  -0.00446   2.11384
   R16        2.11992  -0.01155   0.00000  -0.00459  -0.00459   2.11533
   R17        2.11982  -0.09188   0.00000  -0.03654  -0.03654   2.08328
   R18        2.11834  -0.01109   0.00000  -0.00441  -0.00441   2.11394
   R19        2.77790   0.13335   0.00000   0.05092   0.05092   2.82882
   R20        2.77790   0.00895   0.00000   0.00342   0.00342   2.78132
   R21        2.77790   0.09568   0.00000   0.03653   0.03653   2.81443
   R22        2.77790   0.09257   0.00000   0.03535   0.03535   2.81324
   R23        2.02201   0.01941   0.00000   0.00731   0.00731   2.02932
   R24        2.02201   0.01625   0.00000   0.00612   0.00612   2.02813
   R25        2.91018   0.05062   0.00000   0.02069   0.02069   2.93087
   R26        2.02201   0.01593   0.00000   0.00600   0.00600   2.02801
   R27        2.02201   0.02402   0.00000   0.00905   0.00905   2.03105
   R28        2.91018   0.00440   0.00000   0.00180   0.00180   2.91198
   R29        2.02201   0.01750   0.00000   0.00659   0.00659   2.02860
   R30        2.02201   0.01791   0.00000   0.00675   0.00675   2.02875
   R31        2.02201   0.01718   0.00000   0.00647   0.00647   2.02848
   R32        2.02201   0.01921   0.00000   0.00724   0.00724   2.02924
   R33        2.02201   0.00727   0.00000   0.00274   0.00274   2.02474
   R34        2.91018   0.01378   0.00000   0.00564   0.00564   2.91581
   R35        2.02201  -0.00184   0.00000  -0.00069  -0.00069   2.02131
   R36        2.02201   0.01208   0.00000   0.00455   0.00455   2.02656
   R37        2.91018   0.03570   0.00000   0.01460   0.01460   2.92478
   R38        2.02201   0.01486   0.00000   0.00560   0.00560   2.02760
   R39        2.02201   0.01299   0.00000   0.00489   0.00489   2.02690
   R40        2.02201   0.00632   0.00000   0.00238   0.00238   2.02439
   R41        2.63647   0.03456   0.00000   0.01216   0.01217   2.64864
   R42        2.63584   0.00293   0.00000   0.00109   0.00111   2.63695
   R43        2.63562   0.00316   0.00000   0.00117   0.00116   2.63679
   R44        2.07805  -0.01184   0.00000  -0.00461  -0.00461   2.07344
   R45        2.63643   0.00554   0.00000   0.00186   0.00186   2.63829
   R46        2.07795  -0.01135   0.00000  -0.00442  -0.00442   2.07353
   R47        2.63697  -0.00316   0.00000  -0.00117  -0.00119   2.63579
   R48        2.07809  -0.00851   0.00000  -0.00331  -0.00331   2.07478
   R49        2.63584  -0.00785   0.00000  -0.00287  -0.00288   2.63296
   R50        2.07825  -0.00816   0.00000  -0.00317  -0.00317   2.07507
   R51        2.07809  -0.00839   0.00000  -0.00326  -0.00326   2.07483
   R52        2.63647   0.01073   0.00000   0.00378   0.00378   2.64025
   R53        2.63584   0.00689   0.00000   0.00243   0.00243   2.63827
   R54        2.63562   0.00143   0.00000   0.00051   0.00051   2.63613
   R55        2.07805  -0.00937   0.00000  -0.00365  -0.00365   2.07440
   R56        2.63643   0.00171   0.00000   0.00058   0.00058   2.63701
   R57        2.07795  -0.00844   0.00000  -0.00328  -0.00328   2.07467
   R58        2.63697   0.00139   0.00000   0.00045   0.00045   2.63742
   R59        2.07809  -0.00812   0.00000  -0.00316  -0.00316   2.07494
   R60        2.63584  -0.00154   0.00000  -0.00058  -0.00058   2.63526
   R61        2.07825  -0.00806   0.00000  -0.00313  -0.00313   2.07511
   R62        2.07809  -0.00821   0.00000  -0.00319  -0.00319   2.07490
    A1        1.94271   0.02036   0.00000   0.01142   0.01125   1.95397
    A2        1.90946  -0.00298   0.00000  -0.00280  -0.00292   1.90654
    A3        1.91248  -0.01763   0.00000  -0.00712  -0.00746   1.90502
    A4        1.90952  -0.03438   0.00000  -0.01760  -0.01738   1.89214
    A5        1.91244   0.06093   0.00000   0.02999   0.02993   1.94237
    A6        1.87599  -0.02814   0.00000  -0.01491  -0.01481   1.86118
    A7        1.94364  -0.04407   0.00000  -0.01974  -0.01946   1.92419
    A8        1.90933   0.01381   0.00000   0.00423   0.00404   1.91338
    A9        1.91217  -0.07420   0.00000  -0.03542  -0.03500   1.87717
   A10        1.90923  -0.00675   0.00000  -0.00224  -0.00249   1.90674
   A11        1.91225   0.12336   0.00000   0.05813   0.05790   1.97015
   A12        1.87595  -0.01102   0.00000  -0.00443  -0.00501   1.87094
   A13        1.94153   0.04309   0.00000   0.01967   0.01962   1.96114
   A14        1.91271  -0.00874   0.00000  -0.00280  -0.00270   1.91000
   A15        1.90983   0.00425   0.00000   0.00207   0.00215   1.91198
   A16        1.91264  -0.01542   0.00000  -0.00790  -0.00792   1.90472
   A17        1.90967  -0.03570   0.00000  -0.01664  -0.01669   1.89298
   A18        1.87630   0.01137   0.00000   0.00508   0.00497   1.88127
   A19        1.94195  -0.02093   0.00000  -0.00890  -0.00889   1.93307
   A20        1.90958   0.00280   0.00000   0.00175   0.00176   1.91134
   A21        1.91265   0.01016   0.00000   0.00372   0.00369   1.91634
   A22        1.90980   0.02126   0.00000   0.00960   0.00957   1.91936
   A23        1.91244  -0.00796   0.00000  -0.00395  -0.00392   1.90852
   A24        1.87623  -0.00471   0.00000  -0.00195  -0.00194   1.87428
   A25        1.94385  -0.00015   0.00000  -0.00092  -0.00108   1.94277
   A26        1.91216   0.00227   0.00000   0.00186   0.00185   1.91401
   A27        1.90917  -0.00193   0.00000  -0.00119  -0.00108   1.90809
   A28        1.91227   0.00312   0.00000   0.00138   0.00144   1.91371
   A29        1.90924  -0.00154   0.00000  -0.00007  -0.00003   1.90921
   A30        1.87588  -0.00184   0.00000  -0.00108  -0.00111   1.87477
   A31        1.94248   0.02879   0.00000   0.01252   0.01261   1.95509
   A32        1.90958  -0.00336   0.00000  -0.00153  -0.00146   1.90812
   A33        1.91233  -0.00681   0.00000  -0.00225  -0.00234   1.91000
   A34        1.90974  -0.01793   0.00000  -0.00811  -0.00823   1.90151
   A35        1.91241  -0.00786   0.00000  -0.00365  -0.00359   1.90882
   A36        1.87608   0.00635   0.00000   0.00265   0.00264   1.87873
   A37        1.91063   0.26614   0.00000   0.12483   0.12449   2.03512
   A38        1.91063  -0.14646   0.00000  -0.06683  -0.06585   1.84478
   A39        1.91063  -0.07404   0.00000  -0.03319  -0.03083   1.87981
   A40        1.91063  -0.04039   0.00000  -0.01619  -0.01708   1.89356
   A41        1.91063   0.13243   0.00000   0.06409   0.06414   1.97477
   A42        1.91063   0.00536   0.00000   0.00506   0.00479   1.91542
   A43        1.91063  -0.03331   0.00000  -0.01017  -0.01226   1.89837
   A44        1.91063  -0.10408   0.00000  -0.04844  -0.04683   1.86381
   A45        1.91063   0.25786   0.00000   0.11346   0.11328   2.02392
   A46        1.91063   0.02414   0.00000   0.00753   0.00657   1.91720
   A47        1.91063  -0.02128   0.00000  -0.00459  -0.00654   1.90410
   A48        1.91063  -0.12333   0.00000  -0.05778  -0.05636   1.85428
   A49        1.91063  -0.00745   0.00000  -0.00346  -0.00346   1.90717
   A50        1.91063  -0.00042   0.00000   0.00009   0.00009   1.91073
   A51        1.91063   0.01376   0.00000   0.00609   0.00609   1.91672
   A52        1.91063   0.00027   0.00000  -0.00015  -0.00015   1.91048
   A53        1.91063  -0.00187   0.00000  -0.00076  -0.00076   1.90988
   A54        1.91063  -0.00429   0.00000  -0.00181  -0.00182   1.90881
   A55        1.91063   0.00762   0.00000   0.00357   0.00357   1.91420
   A56        1.91063   0.00388   0.00000   0.00179   0.00179   1.91242
   A57        1.91063  -0.00033   0.00000  -0.00016  -0.00016   1.91047
   A58        1.91063  -0.00558   0.00000  -0.00259  -0.00259   1.90804
   A59        1.91063  -0.00293   0.00000  -0.00133  -0.00133   1.90930
   A60        1.91063  -0.00266   0.00000  -0.00128  -0.00128   1.90935
   A61        1.91063  -0.05240   0.00000  -0.02236  -0.02211   1.88852
   A62        1.91063  -0.05769   0.00000  -0.02447  -0.02466   1.88597
   A63        1.91063   0.21002   0.00000   0.09240   0.09260   2.00324
   A64        1.91063   0.02028   0.00000   0.00645   0.00564   1.91628
   A65        1.91063  -0.07210   0.00000  -0.03201  -0.03199   1.87864
   A66        1.91063  -0.04812   0.00000  -0.02001  -0.02018   1.89046
   A67        1.91063  -0.05101   0.00000  -0.02242  -0.02191   1.88873
   A68        1.91063  -0.05835   0.00000  -0.02465  -0.02542   1.88521
   A69        1.91063   0.18477   0.00000   0.08145   0.08156   1.99219
   A70        1.91063   0.01699   0.00000   0.00494   0.00434   1.91498
   A71        1.91063  -0.07754   0.00000  -0.03541  -0.03509   1.87554
   A72        1.91063  -0.01487   0.00000  -0.00391  -0.00412   1.90651
   A73        1.91063  -0.00234   0.00000  -0.00141  -0.00140   1.90923
   A74        1.91063   0.01055   0.00000   0.00496   0.00493   1.91557
   A75        1.91063   0.01927   0.00000   0.00925   0.00922   1.91986
   A76        1.91063  -0.01529   0.00000  -0.00766  -0.00766   1.90298
   A77        1.91063  -0.01036   0.00000  -0.00492  -0.00492   1.90572
   A78        1.91063  -0.00183   0.00000  -0.00022  -0.00028   1.91036
   A79        2.09435   0.08435   0.00000   0.03562   0.03557   2.12991
   A80        2.09447  -0.05116   0.00000  -0.02176  -0.02180   2.07267
   A81        2.09437  -0.03320   0.00000  -0.01386  -0.01387   2.08050
   A82        2.09455   0.01110   0.00000   0.00505   0.00505   2.09959
   A83        2.09406   0.00797   0.00000   0.00378   0.00377   2.09783
   A84        2.09458  -0.01906   0.00000  -0.00882  -0.00882   2.08576
   A85        2.09440   0.02032   0.00000   0.00881   0.00883   2.10322
   A86        2.09453  -0.01258   0.00000  -0.00553  -0.00554   2.08899
   A87        2.09426  -0.00775   0.00000  -0.00328  -0.00329   2.09097
   A88        2.09429   0.00448   0.00000   0.00188   0.00186   2.09615
   A89        2.09462  -0.00267   0.00000  -0.00114  -0.00113   2.09349
   A90        2.09427  -0.00182   0.00000  -0.00074  -0.00073   2.09354
   A91        2.09448   0.00218   0.00000   0.00061   0.00060   2.09508
   A92        2.09411  -0.00099   0.00000  -0.00026  -0.00026   2.09386
   A93        2.09459  -0.00118   0.00000  -0.00035  -0.00035   2.09425
   A94        2.09429  -0.00488   0.00000  -0.00248  -0.00251   2.09178
   A95        2.09407   0.00239   0.00000   0.00122   0.00123   2.09529
   A96        2.09483   0.00250   0.00000   0.00127   0.00128   2.09611
   A97        2.09435   0.02063   0.00000   0.00870   0.00869   2.10304
   A98        2.09447  -0.00650   0.00000  -0.00278  -0.00279   2.09168
   A99        2.09437  -0.01412   0.00000  -0.00592  -0.00592   2.08845
   A100       2.09455   0.00557   0.00000   0.00247   0.00248   2.09702
   A101       2.09406  -0.00074   0.00000  -0.00029  -0.00029   2.09377
   A102       2.09458  -0.00483   0.00000  -0.00219  -0.00219   2.09239
   A103       2.09440   0.00877   0.00000   0.00382   0.00383   2.09822
   A104       2.09453  -0.00467   0.00000  -0.00205  -0.00205   2.09249
   A105       2.09426  -0.00410   0.00000  -0.00178  -0.00178   2.09248
   A106       2.09429   0.00182   0.00000   0.00074   0.00074   2.09503
   A107       2.09462  -0.00096   0.00000  -0.00039  -0.00039   2.09422
   A108       2.09427  -0.00086   0.00000  -0.00035  -0.00035   2.09393
   A109       2.09448  -0.00003   0.00000  -0.00012  -0.00012   2.09436
[...]
 .00000047,0.00000080,0.00000020,-0.00000925,0.00001342,0.00002947,-0.0
 0000009,0.00000013,-0.00000263,0.00000182,-0.00000163,-0.00000129,0.00
 001526,-0.00000578,-0.00000802,0.00000025,-0.00000722,0.00001062,-0.00
 000183,0.00000306,-0.00000325,-0.00000006,-0.00000141,-0.00000257,-0.0
 0000382,-0.00000526,0.00000212,-0.00000176,-0.00000174,-0.00000355,-0.
 00086367,0.00263611,0.00138271,0.01192412,0.01229560,0.00566496,-0.000
 62500,0.00078978,0.00034838,-0.14394928,-0.11513735,-0.05369268,0.0008
 6916,-0.00048824,-0.00023945,-0.00550331,0.00196126,0.00093650,0.00014
 250,-0.00014630,-0.00006356,-0.01218531,-0.02600310,-0.01208899,0.1491
 5265,-0.00005107,-0.00008509,-0.00002394,-0.00009426,0.00001601,0.0001
 5832,0.00002540,-0.00001424,-0.00004315,-0.00001137,-0.00000880,0.0000
 1419,-0.00000927,-0.00000128,-0.00000662,0.00002027,0.00002509,0.00001
 387,0.00001534,0.00002018,0.00000694,-0.00001217,-0.00000427,0.0000122
 4,0.00000394,0.00000023,0.00000648,0.00000073,0.00000037,-0.00000051,0
 .00000874,-0.00001113,-0.00000711,0.00000869,0.00000076,-0.00000105,0.
 00000076,-0.00000021,0.00000382,-0.00000201,-0.00000211,-0.00000068,0.
 00001882,-0.00000620,-0.00000662,0.00000480,-0.00000334,0.00000685,0.0
 0005119,0.00005851,0.00003298,0.00024648,-0.00005158,0.00009489,-0.000
 00431,-0.00000891,-0.00000467,0.00000109,0.00000309,0.00000262,0.00001
 454,0.00001091,-0.00000365,-0.00004743,-0.00005523,-0.00005911,0.00000
 354,0.00000429,-0.00000211,0.00000261,0.00002879,0.00002225,0.00008768
 ,0.00002424,-0.00000238,0.00000006,0.00000089,-0.00000179,-0.00000574,
 0.00000988,0.00000278,-0.00003192,-0.00003891,0.00000359,-0.00152141,-
 0.00022539,-0.00014564,0.00005047,-0.00004476,-0.00005456,0.00016032,-
 0.00043651,-0.00019478,0.00006053,-0.00000129,-0.00026054,-0.00005084,
 0.00006203,0.00000367,0.00002786,-0.00003827,0.00003107,-0.00003339,0.
 00002096,0.00004521,0.00000540,-0.00002187,0.00002765,0.00000343,0.000
 00865,-0.00000246,0.00003026,0.00000284,-0.00001916,-0.00001641,0.0000
 0871,-0.00000147,0.00000256,0.00000195,0.00000007,0.00002425,0.0000058
 7,-0.00001970,0.00000354,0.00000015,0.00000401,-0.00000058,-0.00000275
 ,0.00000055,0.00000261,0.00001842,0.00000268,-0.00003849,-0.00002561,-
 0.00000972,0.00000737,0.00000650,0.00001155,0.00000022,-0.00000165,0.0
 0000088,-0.00000222,-0.00001816,0.00000595,-0.00000166,-0.00000218,0.0
 0000402,0.00378540,-0.00130123,-0.00424942,-0.01605856,-0.01533948,-0.
 00827087,0.00090950,0.00000050,0.00009332,-0.11535153,-0.21511622,-0.0
 8310688,0.00010683,0.00030208,0.00209450,0.00064615,0.00238157,-0.0021
 1064,-0.00013049,-0.00025838,0.00047703,0.00267406,0.00468514,0.001036
 27,0.12464768,0.22521715,-0.00002459,-0.00005037,-0.00001094,-0.000044
 74,0.00002231,0.00007304,0.00001318,-0.00000926,-0.00001116,-0.0000050
 7,-0.00000325,0.00000871,-0.00000402,-0.00000220,-0.00000165,0.0000103
 6,0.00001456,0.00001103,0.00000595,0.00000931,0.00000358,-0.00000410,-
 0.00000419,-0.00000228,-0.00000100,0.00000667,-0.00000349,0.00000045,0
 .00000022,-0.00000329,0.00000420,-0.00000444,-0.00000303,0.00000467,0.
 ,-0.00000089,-0.00000026,0.00000222,-0.00000064,-0.00000057,-0.0000020
 0,-0.00000532,0.00000899,-0.00000329,-0.00000292,-0.00000015,0.0000012
 7,-0.00000050,0.00002203,0.00003684,-0.00001117,0.00001986,0.00004361,
 -0.00000435,-0.00000218,-0.00003042,0.00001690,0.00000004,0.00000693,-
 0.00000478,0.00001356,0.00000713,0.00000107,-0.00000404,-0.00001308,-0
 .00001039,-0.00000248,0.00001510,-0.00000485,0.00000096,0.00000584,0.0
 0000320,-0.00000089,-0.00000066,0.00000389,0.00002860,0.00000787,-0.00
 001837,-0.00001485,0.00000743,-0.00000460,0.00000344,-0.00001550,0.000
 03455,-0.00054490,-0.00019797,0.00009539,0.00000224,-0.00004751,-0.000
 02573,0.00011570,-0.00018096,-0.00023188,-0.00001616,0.00005261,0.0000
 4629,0.00000143,-0.00006249,0.00000576,0.00000959,-0.00000791,0.000013
 80,0.00000798,-0.00002187,-0.00000695,-0.00000023,-0.00000014,0.000005
 68,-0.00000244,-0.00000939,0.00000091,0.00000532,0.00001463,-0.0000068
 0,0.00000600,0.00000117,0.00000498,-0.00000481,0.00000412,-0.00000020,
 0.00002012,0.00003265,-0.00004360,-0.00000049,0.00000378,0.00000585,-0
 .00000485,-0.00000011,0.00000315,0.00002668,0.00000747,0.00000443,-0.0
 0000911,-0.00006718,0.00002765,-0.00000761,0.00000786,-0.00000470,-0.0
 0000278,0.00000035,0.00000303,-0.00002032,-0.00001666,-0.00001006,-0.0
 0000041,-0.00000391,0.00000284,0.00184178,-0.00389567,0.00558818,-0.00
 752988,-0.00852362,-0.00138998,0.00031096,0.00015445,-0.00013978,-0.05
 387175,-0.08314868,-0.07475187,0.00012845,0.00203888,-0.00320022,0.000
 36161,-0.00214735,0.00596054,-0.00007906,0.00047392,-0.00107142,0.0012
 7281,0.00109725,0.00292967,0.05804719,0.09270310,0.06881401,0.00002273
 ,0.00003783,0.00002964,0.00005539,-0.00000691,-0.00018792,-0.00004466,
 0.00000810,0.00004044,0.00001432,0.00001548,-0.00001607,0.00000351,-0.
 00000559,0.00000732,-0.00001347,-0.00001251,-0.00001728,0.00000028,-0.
 00000882,-0.00000087,0.00000922,0.00000120,-0.00000733,-0.00000161,-0.
 00000192,-0.00000386,-0.00000148,-0.00000239,0.00000320,-0.00000821,0.
 00001750,0.00000871,-0.00000744,0.00000610,0.00000358,0.00000047,0.000
 00039,-0.00000342,0.00000012,0.00000206,0.00000353,-0.00001389,0.00000
 582,0.00000646,-0.00000232,0.00000234,-0.00000566,-0.00005079,0.000001
 02,0.00001293,-0.00030681,0.00026239,0.00015922,0.00002048,0.00000705,
 -0.00003177,-0.00001147,0.00000322,0.00000968,0.00000238,-0.00000250,-
 0.00000028,0.00002143,-0.00000568,0.00001801,0.00000409,-0.00000110,0.
 00000169,-0.00001728,0.00000414,0.00000143,0.00001956,0.00000005,-0.00
 001005,0.00000140,-0.00000098,0.00000103,-0.00000976,-0.00000019,-0.00
 000405,-0.00000652,0.00000100,0.00001337,-0.00026397,-0.00070266,-0.00
 027431,-0.00007769,0.00009495,0.00006556,-0.00000648,0.00007499,0.0000
 1456,-0.00002653,-0.00007317,0.00013037,0.00002287,0.00000161,0.000010
 21,-0.00001404,0.00002768,-0.00002557,0.00000520,0.00001389,-0.0000276
 1,-0.00000382,0.00001639,-0.00002282,0.00000323,0.00001061,0.00000218,
 -0.00001431,-0.00002135,0.00002177,0.00000774,-0.00000447,0.00001354,0
 .00000130,-0.00000171,0.00000333,0.00000108,-0.00001472,-0.00003167,-0
 .00000360,0.00000270,0.00000372,-0.00000227,0.00000303,0.00000172,-0.0
 0001678,0.00000344,0.00001226,0.00001065,0.00001542,0.00000211,-0.0000
 0334,-0.00000330,-0.00001048,-0.00000176,0.00000241,0.00000451,-0.0000
 0405,0.00000594,-0.00001537,0.00000241,0.00000088,0.00000813,0.0011062
 3,0.00262811,0.00123126,0.00066637,-0.00005009,-0.00001276,-0.01055439
 ,-0.00171144,-0.00066438,0.00039572,-0.00322801,-0.00142084,-0.0000850
 6,0.00003024,-0.00000543,-0.33725638,0.01030692,0.00755219,0.00097455,
 0.00019326,0.00004966,-0.01294733,0.00317735,0.00161102,-0.00080159,0.
 00018823,0.00008300,0.35824760,-0.00001645,-0.00004632,-0.00002597,0.0
 0000843,-0.00003539,0.00015067,0.00003746,-0.00000404,-0.00002911,-0.0
 0001093,-0.00001372,0.00000897,-0.00000301,0.00000340,-0.00000346,0.00
 001407,0.00001183,0.00001262,-0.00000244,0.00000642,-0.00000136,-0.000
 00654,0.00000106,0.00000904,0.00000262,0.00000056,0.00000372,0.0000006
 5,0.00000131,-0.00000092,0.00000631,-0.00001044,-0.00000604,0.00000302
 ,-0.00000190,-0.00000094,0.00000002,-0.00000043,0.00000193,-0.00000053
 ,-0.00000088,-0.00000123,0.00000902,-0.00000478,-0.00000525,0.00000282
 ,-0.00000238,0.00000539,0.00001975,0.00001717,0.00000251,0.00032022,-0
 .00023436,-0.00021354,-0.00000355,-0.00000524,0.00000952,0.00000246,0.
 00000015,-0.00000271,0.00000256,0.00000284,-0.00000114,-0.00001066,-0.
 00000708,-0.00001665,-0.00000041,0.00000089,-0.00000070,0.00000441,0.0
 0000345,0.00000371,0.00000853,0.00000252,0.00000044,0.00000099,0.00000
 041,-0.00000105,0.00000047,0.00000217,0.00000133,-0.00000098,-0.000004
 67,0.00000096,0.00087293,0.00068072,0.00037110,-0.00000358,-0.00003290
 ,-0.00007535,-0.00001967,-0.00004974,0.00000480,0.00001393,0.00003335,
 -0.00009226,-0.00000814,-0.00002624,0.00001431,0.00000462,-0.00002001,
 0.00002388,0.00001107,-0.00001576,0.00003406,-0.00000135,-0.00001266,0
 .00001408,-0.00000333,-0.00000180,-0.00000208,0.00000553,0.00001132,-0
 .00001324,-0.00000405,0.00000280,0.00000148,-0.00000121,0.00000185,-0.
 00000040,0.00000200,-0.00000173,-0.00000512,0.00000063,-0.00000056,0.0
 0000099,0.00000035,-0.00000049,0.00000057,0.00000087,0.00000427,0.0000
 0236,0.00000100,-0.00000635,-0.00000161,0.00000219,0.00000066,0.000003
 38,0.00000056,-0.00000034,-0.00000088,-0.00000051,-0.00000330,0.000000
 90,-0.00000069,0.00000086,0.00000001,0.00139835,-0.00286468,-0.0048032
 8,-0.00008445,-0.00112855,-0.00030806,0.02698949,0.00320250,0.00009855
 ,-0.00192299,-0.00250441,-0.00439822,0.00002583,-0.00003820,0.00053925
 ,0.01029591,-0.05670461,-0.00958516,-0.00043846,0.00032318,0.00194539,
 -0.02551910,0.00543110,0.00161636,-0.00140705,0.00020112,-0.00007733,-
 0.01116478,0.05357595,-0.00000645,-0.00002717,-0.00001558,0.00002087,-
 0.00002245,0.00006590,0.00002032,0.00000012,-0.00000911,-0.00000517,-0
 .00000570,0.00000514,-0.00000123,0.00000098,-0.00000059,0.00000747,0.0
 0000661,0.00000685,-0.00000157,0.00000095,0.00000168,-0.00000216,0.000
 00164,0.00000135,-0.00000065,0.00000108,-0.00000038,0.00000110,0.00000
 073,-0.00000338,0.00000271,-0.00000385,-0.00000221,0.00000171,-0.00000
 097,-0.00000049,-0.00000069,0.00000063,-0.00000079,0.00000038,-0.00000
 050,-0.00000273,0.00000427,-0.00000226,-0.00000259,-0.00000104,0.00000
 028,-0.00000176,0.00000651,0.00000808,-0.00000458,0.00018643,-0.000191
 75,-0.00015507,-0.00000114,-0.00000672,0.00001098,0.00000056,0.0000007
 2,-0.00000255,0.00000017,0.00000171,-0.00000178,-0.00000221,-0.0000006
 7,-0.00000219,-0.00000045,0.00000211,-0.00000187,0.00000143,0.00000109
 ,0.00000052,0.00000009,-0.00000026,0.00000200,0.00000147,0.00000155,-0
 .00000171,-0.00000146,0.00000046,-0.00000010,-0.00000235,-0.00000278,0
 .00000124,0.00040508,0.00015625,0.00033016,0.00005644,-0.00002550,-0.0
 0001833,0.00000104,-0.00000417,0.00001147,0.00002355,-0.00000095,-0.00
 011009,-0.00001788,0.00005585,0.00001053,0.00000407,0.00000482,0.00000
 213,-0.00000530,0.00002226,0.00000423,-0.00000471,0.00000301,-0.000002
 02,0.00000688,0.00000090,-0.00000413,-0.00000149,0.00000731,0.00000499
 ,0.00000108,0.00000186,-0.00000242,-0.00000184,0.00000126,-0.00000240,
 0.00000003,0.00000937,0.00000441,0.00000171,-0.00000149,-0.00000124,-0
 .00000202,-0.00000003,-0.00000011,0.00001590,-0.00000851,-0.00000650,-
 0.00000557,-0.00001104,-0.00000181,-0.00000476,0.00000129,0.00000285,-
 0.00000008,0.00000033,0.00000007,-0.00000060,0.00000289,0.00000448,0.0
 0000107,-0.00000019,-0.00000557,0.00044267,-0.00469313,0.00522625,-0.0
 0002808,-0.00021314,-0.00051396,0.01253456,0.00037418,0.00221685,-0.00
 078462,-0.00442683,0.00503467,0.00003433,0.00055107,-0.00093630,0.0077
 4312,-0.00947517,-0.04000104,-0.00027212,0.00192180,-0.00303396,-0.011
 74053,0.00125253,0.00310547,-0.00062727,-0.00007507,0.00031045,-0.0082
 2291,0.01288139,0.03149283,0.00001140,-0.00000634,0.00000793,0.0000674
 0,-0.00002827,-0.00006642,-0.00002309,0.00000709,0.00002232,0.00000618
 ,0.00000891,-0.00000739,0.00000094,-0.00000266,0.00000466,-0.00000191,
 -0.00000080,-0.00000687,0.00000022,-0.00000252,-0.00000016,-0.00000056
 ,0.00000160,0.00000354,0.00000075,-0.00000035,-0.00000124,-0.00000080,
 -0.00000106,0.00000155,-0.00000391,0.00000829,0.00000436,-0.00000354,0
 .00000390,0.00000212,0.00000032,0.00000031,-0.00000194,-0.00000020,0.0
 0000100,0.00000180,-0.00000682,0.00000193,0.00000222,-0.00000008,0.000
 00011,-0.00000245,-0.00005446,0.00001494,0.00001176,0.00001846,0.00019
 906,0.00001077,0.00002156,0.00001056,-0.00002748,-0.00001099,0.0000015
 8,0.00000889,0.00000126,-0.00000218,-0.00000174,0.00002764,0.00000163,
 0.00002481,0.00000339,-0.00000230,0.00000038,-0.00001589,0.00000215,-0
 .00000030,0.00002617,-0.00000873,-0.00002452,-0.00000183,0.00000019,0.
 00000521,-0.00001821,0.00000203,-0.00000299,-0.00000193,0.00001126,0.0
 0002657,0.00009412,-0.00001631,-0.00001468,-0.00000036,0.00001392,0.00
 000796,0.00000973,0.00009940,0.00003287,-0.00001789,-0.00005945,0.0000
 6941,0.00000447,-0.00001340,0.00003559,-0.00000789,0.00001832,-0.00000
 264,-0.00000689,0.00000648,-0.00000329,0.00000478,0.00000619,-0.000010
 03,0.00000494,0.00000780,-0.00000014,-0.00000036,-0.00000357,0.0000003
 4,0.00000290,-0.00000019,0.00001775,-0.00000228,0.00000077,-0.00000058
 ,0.00000216,-0.00002738,-0.00003948,-0.00000145,0.00000103,0.00000429,
 -0.00000196,0.00000296,0.00000238,-0.00001852,0.00000627,0.00001254,0.
 00001397,0.00002721,-0.00001471,0.00000216,-0.00000267,0.00000065,-0.0
 0000041,0.00000158,0.00000283,0.00000199,0.00000543,-0.00000764,0.0000
 0182,0.00000196,0.00000524,-0.00088594,-0.00073778,-0.00030415,-0.0056
 8964,-0.00131872,-0.00060494,-0.00160339,-0.00263396,-0.00117555,-0.00
 905616,0.02740877,0.01280471,-0.00044585,0.00131899,0.00062541,0.01202
 717,-0.01532176,-0.00716419,0.00045510,-0.00085956,-0.00037023,-0.1177
 9018,0.10209311,0.04770047,0.00126977,-0.00037624,-0.00017342,0.000958
 77,0.00056580,0.00021936,0.12063388,-0.00001319,-0.00001997,-0.0000285
 8,-0.00002773,0.00004033,0.00008986,0.00001170,-0.00000451,-0.00001682
 ,-0.00000555,-0.00000417,0.00000870,-0.00000244,0.00000305,-0.00000552
 ,0.00000888,0.00000720,0.00000962,0.00000373,0.00000625,0.00000209,-0.
 00000172,-0.00000166,0.00000096,-0.00000122,0.00000020,0.00000335,0.00
 000065,0.00000099,-0.00000066,0.00000357,-0.00000925,-0.00000433,0.000
 00540,-0.00000384,-0.00000258,0.00000002,-0.00000068,0.00000317,-0.000
 00043,-0.00000127,-0.00000112,0.00001024,-0.00000344,-0.00000380,0.000
 00132,-0.00000190,0.00000402,0.00003712,-0.00000029,0.00000016,0.00012
 439,-0.00013185,-0.00003444,-0.00001568,-0.00000124,0.00001544,0.00000
 854,-0.00000289,-0.00000504,-0.00000075,0.00000203,0.00000117,-0.00001
 805,-0.00000117,-0.00001941,-0.00000238,-0.00000038,-0.00000019,0.0000
 1256,-0.00000147,0.00000062,-0.00001233,0.00000207,0.00000795,-0.00000
 212,-0.00000032,-0.00000032,0.00000925,0.00000030,0.00000382,0.0000039
 4,-0.00000169,-0.00001123,-0.00001997,-0.00000543,0.00049210,-0.000027
 92,0.00003226,0.00001871,-0.00001651,-0.00001737,-0.00001698,0.0000107
 3,0.00004480,-0.00007716,-0.00000933,0.00000685,-0.00000913,0.00001381
 ,-0.00001584,0.00001194,-0.00002612,-0.00000057,0.00000876,0.00000676,
 -0.00001182,0.00001830,0.00000113,-0.00000488,0.00000093,0.00001330,0.
 00000848,-0.00001610,-0.00000688,0.00000116,-0.00001353,0.00000203,-0.
 00000012,-0.00000076,0.00000527,0.00001160,0.00002337,0.00000205,-0.00
 000063,-0.00000218,0.00000277,-0.00000303,-0.00000178,0.00000618,0.000
 00265,-0.00000724,-0.00001591,-0.00001286,-0.00000116,0.00000515,0.000
 00266,0.00000571,0.00000117,-0.00000239,-0.00000324,0.00000219,-0.0000
 0922,0.00001022,-0.00000263,-0.00000155,-0.00000265,-0.00064220,0.0000
 3157,0.00027682,-0.00002577,0.00263210,-0.00211718,-0.00394803,-0.0007
 1636,-0.00364071,-0.00129264,0.00229775,0.00014204,-0.00013471,0.00003
 805,-0.00010737,0.01349368,-0.01526106,-0.00810314,0.00068404,-0.00089
 576,-0.00056961,0.10202697,-0.23703803,-0.09424177,0.00033949,-0.00000
 184,0.00176788,-0.00014947,0.00026009,0.00192316,-0.11043634,0.2487583
 0,-0.00001373,-0.00001216,0.00001863,-0.00006056,-0.00001337,0.0000443
 0,0.00001636,-0.00000850,-0.00002389,-0.00000585,-0.00000587,0.0000061
 0,-0.00000250,-0.00000035,-0.00000157,0.00000014,0.00000414,0.00000396
 ,0.00000237,0.00000366,0.00000127,-0.00000811,-0.00000216,0.00000028,0
 .00000207,0.00000305,-0.00000209,0.00000050,0.00000056,-0.00000276,0.0
 0000344,-0.00000523,-0.00000290,0.00000375,-0.00000146,-0.00000144,-0.
 00000034,0.00000113,0.,-0.00000003,-0.00000133,-0.00000319,0.00000409,
 -0.00000057,-0.00000081,-0.00000058,0.00000300,-0.00000087,0.00001554,
 0.00000684,-0.00001377,0.00013139,0.00001232,0.00001597,-0.00000586,-0
 .00001012,0.00001812,0.00000290,0.00000035,-0.00000509,0.00000056,0.00
 000211,0.00000025,-0.00000563,0.00000204,-0.00000071,-0.00000213,0.000
 00423,-0.00000276,0.00000519,-0.00000143,-0.00000173,-0.00000910,-0.00
 000086,0.00000504,0.00000388,0.00000262,-0.00000395,0.00000099,0.00000
 024,0.00000037,0.00000354,-0.00000354,0.00000004,-0.00005392,0.0002768
 7,-0.00093238,0.00012962,-0.00010718,-0.00010944,0.00010808,0.00008400
 ,0.00003531,0.00000803,-0.00002118,-0.00001821,-0.00001741,-0.00000137
 ,-0.00002100,0.00000864,-0.00000988,0.00000257,-0.00000449,0.00000164,
 0.00000792,0.00000177,-0.00000384,0.00000538,-0.00000142,-0.00000823,-
 0.00000359,0.00000716,0.00000836,-0.00000328,-0.00000033,0.00000308,-0
 .00000089,-0.00000330,0.00000315,-0.00000226,-0.00000226,0.00001119,0.
 00000984,0.00000170,0.00000009,0.00000019,-0.00000148,-0.00000087,0.00
 000059,0.00001844,-0.00000149,-0.00000526,-0.00000041,-0.00000947,0.00
 000081,-0.00000271,0.00000559,0.00000276,-0.00000066,-0.00000083,-0.00
 000028,-0.00000370,-0.00000695,0.00000244,-0.00000079,-0.00000275,-0.0
 0000328,-0.00045824,0.00038124,-0.00034922,0.00006060,-0.00231045,0.00
 607232,-0.00170728,-0.00360193,0.00553317,-0.00082499,0.00013676,0.002
 00516,-0.00008596,-0.00006984,0.00025381,0.00627674,-0.00776025,-0.001
 65714,0.00031884,-0.00050670,0.00014477,0.04776318,-0.09435332,-0.0787
 8479,0.00015442,0.00176094,-0.00299074,-0.00011864,0.00190939,-0.00300
 819,-0.05165150,0.10421487,0.07376610\\-0.00001105,-0.00002900,-0.0000
 1137,0.00001693,-0.00001102,-0.00001541,-0.00000352,0.00000790,0.00000
 190,-0.00000388,-0.00000527,0.00000103,0.00000240,-0.00000185,-0.00000
 055,-0.00000402,0.00000201,0.00000589,0.00000328,-0.00000005,0.0000023
 8,-0.00000320,-0.00000030,0.00000372,0.00000129,0.00000437,-0.00000057
 ,-0.00000082,-0.00000004,0.00000223,-0.00000071,0.00000046,-0.00000039
 ,-0.00000121,-0.00000183,0.00000353,-0.00000231,-0.00000077,0.00000131
 ,0.00000190,-0.00000920,0.00000726,-0.00000038,-0.00000117,0.00000037,
 0.00000008,-0.00000110,-0.00000235,-0.00000387,0.00001914,0.00000072,-
 0.00000182,-0.00001013,0.00002542,0.00000296,-0.00000326,-0.00000826,-
 0.00000228,0.00000202,-0.00000053,0.00000146,0.00000055,-0.00000263,0.
 00000519,0.00000025,0.00000136,0.00000047,-0.00000058,-0.00000113,0.00
 000042,-0.00000041,0.00000009,0.00000186,-0.00000225,0.00000204,0.0000
 0020,0.00000098,-0.00000323,0.00000127,0.00000162,-0.00000165,0.000001
 91,0.00000200,-0.00000216,-0.00000671,0.00000723,0.00000045,0.00000335
 ,0.00000143,0.00000155,0.00000124,0.00000290,0.00000083,-0.00001041,0.
 00000249,-0.00000897,-0.00000168,0.00000362,0.00000276,0.00000118,0.00
 000399,0.00000248,-0.00000018,0.00000236,0.00000204,0.00000177,0.00000
 181,0.00000311,-0.00000155,0.00000116,0.00000340,0.00000089,0.00000475
 ,0.00000328,-0.00000156,0.00000418,0.00000262,0.00000058,-0.00000015,-
 0.00000305,0.00000081,0.00000022,-0.00000425,-0.00000149,-0.00000248,-
 0.00000142,-0.00000179,-0.00000141,-0.00000195,0.00000039,-0.00000156,
 0.00000006,0.00000201,-0.00000041,-0.00000134,-0.00000039,-0.00000219,
 -0.00000223,-0.00000030,-0.00000300,0.00000005,0.00000037,-0.00000116,
 -0.00000153,-0.00000051,-0.00000183,0.00000035,0.00000157,-0.00000151,
 0.00000180,0.00000098,0.00000337,-0.00000293,0.00000006,0.00000026,-0.
 00000039,0.00000147,0.00000168,-0.00000175,0.00000109,-0.00000195,-0.0
 0000143,0.00000043,0.00000285,-0.00000061,-0.00000009,0.00000219,0.000
 00152,0.00000096,0.00000255,-0.00000084,0.00000128,0.00000140,-0.00000
 149,0.00000145,0.00000216,-0.00000040,0.00000220,0.00000199,-0.0000007
 4\\\@
 The archive entry for this job was punched.


 The theorems and results in mathematical physics are
 not theorems and results about Nature, but about our
 description of it.
                   --Gerard 't Hooft
 Job cpu time:       0 days  7 hours 43 minutes 27.4 seconds.
 Elapsed time:       0 days  0 hours 55 minutes 44.9 seconds.
 File lengths (MBytes):  RWF=   1608 Int=      0 D2E=      0 Chk=     39 Scr=      1
 Normal termination of Gaussian 16 at Mon Oct 25 03:21:43 2021.
