 Entering Gaussian System, Link 0=/home/rong/g16/g16
 Input=/home/rong/g16/111821/Y6MeCorrected.gjf
 Output=/home/rong/g16/111821/Y6MeCorrected.log
 Initial command:
 /home/rong/g16/l1.exe "/tmp/Gau-216433.inp" -scrdir="/tmp/"
 Default is to use a total of   8 processors:
                                8 via shared-memory
                                1 via Linda
 Entering Link 1 = /home/rong/g16/l1.exe PID=    216435.
  
 Copyright (c) 1988-2019, Gaussian, Inc.  All Rights Reserved.
  
 This is part of the Gaussian(R) 16 program.  It is based on
 the Gaussian(R) 09 system (copyright 2009, Gaussian, Inc.),
 the Gaussian(R) 03 system (copyright 2003, Gaussian, Inc.),
 the Gaussian(R) 98 system (copyright 1998, Gaussian, Inc.),
 the Gaussian(R) 94 system (copyright 1995, Gaussian, Inc.),
 the Gaussian 92(TM) system (copyright 1992, Gaussian, Inc.),
 the Gaussian 90(TM) system (copyright 1990, Gaussian, Inc.),
 the Gaussian 88(TM) system (copyright 1988, Gaussian, Inc.),
 the Gaussian 86(TM) system (copyright 1986, Carnegie Mellon
 University), and the Gaussian 82(TM) system (copyright 1983,
 Carnegie Mellon University). Gaussian is a federally registered
 trademark of Gaussian, Inc.
  
 This software contains proprietary and confidential information,
 including trade secrets, belonging to Gaussian, Inc.
  
 This software is provided under written license and may be
 used, copied, transmitted, or stored only in accord with that
 written license.
  
 The following legend is applicable only to US Government
 contracts under FAR:
  
                    RESTRICTED RIGHTS LEGEND
  
 Use, reproduction and disclosure by the US Government is
 subject to restrictions as set forth in subparagraphs (a)
 and (c) of the Commercial Computer Software - Restricted
 Rights clause in FAR 52.227-19.
  
 Gaussian, Inc.
 340 Quinnipiac St., Bldg. 40, Wallingford CT 06492
  
  
 ---------------------------------------------------------------
 Warning -- This program may not be used in any manner that
 competes with the business of Gaussian, Inc. or will provide
 assistance to any competitor of Gaussian, Inc.  The licensee
 of this program is prohibited from giving any competitor of
 Gaussian, Inc. access to this program.  By using this program,
 the user acknowledges that Gaussian, Inc. is engaged in the
 business of creating and licensing software in the field of
 computational chemistry and represents and warrants to the
 licensee that it is not a competitor of Gaussian, Inc. and that
 it will not use this program in any manner prohibited above.
 ---------------------------------------------------------------
  

 Cite this work as:
 Gaussian 16, Revision C.01,
 M. J. Frisch, G. W. Trucks, H. B. Schlegel, G. E. Scuseria, 
 M. A. Robb, J. R. Cheeseman, G. Scalmani, V. Barone, 
 G. A. Petersson, H. Nakatsuji, X. Li, M. Caricato, A. V. Marenich, 
 J. Bloino, B. G. Janesko, R. Gomperts, B. Mennucci, H. P. Hratchian, 
 J. V. Ortiz, A. F. Izmaylov, J. L. Sonnenberg, D. Williams-Young, 
 F. Ding, F. Lipparini, F. Egidi, J. Goings, B. Peng, A. Petrone, 
 T. Henderson, D. Ranasinghe, V. G. Zakrzewski, J. Gao, N. Rega, 
 G. Zheng, W. Liang, M. Hada, M. Ehara, K. Toyota, R. Fukuda, 
 J. Hasegawa, M. Ishida, T. Nakajima, Y. Honda, O. Kitao, H. Nakai, 
 T. Vreven, K. Throssell, J. A. Montgomery, Jr., J. E. Peralta, 
 F. Ogliaro, M. J. Bearpark, J. J. Heyd, E. N. Brothers, K. N. Kudin, 
 V. N. Staroverov, T. A. Keith, R. Kobayashi, J. Normand, 
 K. Raghavachari, A. P. Rendell, J. C. Burant, S. S. Iyengar, 
 J. Tomasi, M. Cossi, J. M. Millam, M. Klene, C. Adamo, R. Cammi, 
 J. W. Ochterski, R. L. Martin, K. Morokuma, O. Farkas, 
 J. B. Foresman, and D. J. Fox, Gaussian, Inc., Wallingford CT, 2019.
 
 ******************************************
 Gaussian 16:  ES64L-G16RevC.01  3-Jul-2019
                18-Nov-2021 
 ******************************************
 %mem=15GB
 %chk=benzNMeCHCH3.chk
 %nprocshared=8
 Will use up to    8 processors via shared memory.
 ----------------------------------------------------
 # opt freq b3lyp/6-31g(d) scrf=(smd,solvent=toluene)
 ----------------------------------------------------
 1/18=20,19=15,26=3,38=1/1,3;
 2/9=110,12=2,17=6,18=5,40=1/2;
 3/5=1,6=6,7=1,11=2,25=1,30=1,70=32201,71=1,72=13,74=-5/1,2,3;
 4//1;
 5/5=2,38=5,53=13/2;
 6/7=2,8=2,9=2,10=2,28=1/1;
 7//1,2,3,16;
 1/18=20,19=15,26=3/3(2);
 2/9=110/2;
 99//99;
 2/9=110/2;
 3/5=1,6=6,7=1,11=2,25=1,30=1,70=32205,71=1,72=13,74=-5/1,2,3;
 4/5=5,16=3,69=1/1;
 5/5=2,38=5,53=13/2;
 7//1,2,3,16;
 1/18=20,19=15,26=3/3(-5);
 2/9=110/2;
 6/7=2,8=2,9=2,10=2,19=2,28=1/1;
 99/9=1/99;
 -------------
 Y6MeCorrected
 -------------
 Symbolic Z-matrix:
 Charge =  0 Multiplicity = 1
 C                    -0.32353   0.39706   0. 
 C                     1.07163   0.39706   0. 
 C                     1.76917   1.60481   0. 
 C                     1.07151   2.81332  -0.0012 
 C                    -0.32331   2.81324  -0.00168 
 C                    -1.02091   1.60503  -0.00068 
 H                     2.86885   1.60489   0.00063 
 H                     1.62171   3.76546  -0.00126 
 H                    -0.87343   3.76552  -0.00263 
 H                    -2.12052   1.60522  -0.00086 
 N                    -1.05847  -0.87603   0.0006 
 N                     1.8062   -0.87624   0.00176 
 C                     2.65137  -0.9527    1.20207 
 H                     2.92188  -1.97192   1.38348 
 H                     3.53628  -0.36996   1.0529 
 H                     2.11115  -0.57187   2.04351 
 C                    -1.90397  -0.95316   1.20063 
 H                    -2.81768  -0.42385   1.02778 
 H                    -2.12119  -1.97795   1.41864 
 H                    -1.38849  -0.51381   2.02897 
 C                     2.65123  -0.9561   -1.19843 
 H                     3.48667  -0.29625  -1.09097 
 H                     2.07955  -0.67087  -2.05676 
 C                    -1.9032   -0.95473  -1.19987 
 H                    -2.76153  -0.32844  -1.07369 
 H                    -1.34439  -0.62669  -2.05134 
 C                     3.15688  -2.39995  -1.37508 
 H                     3.3012   -2.6025   -2.41578 
 H                     4.08527  -2.51868  -0.85652 
 H                     2.43551  -3.08186  -0.97569 
 C                    -2.35709  -2.41072  -1.41362 
 H                    -3.34647  -2.53644  -1.02603 
 H                    -2.35254  -2.63582  -2.45966 
 H                    -1.68763  -3.07153  -0.90367 
 

 GradGradGradGradGradGradGradGradGradGradGradGradGradGradGradGradGradGrad
 Berny optimization.
 Initialization pass.
                           ----------------------------
                           !    Initial Parameters    !
                           ! (Angstroms and Degrees)  !
 --------------------------                            --------------------------
 ! Name  Definition              Value          Derivative Info.                !
 --------------------------------------------------------------------------------
 ! R1    R(1,2)                  1.3952         estimate D2E/DX2                !
 ! R2    R(1,6)                  1.3948         estimate D2E/DX2                !
 ! R3    R(1,11)                 1.47           estimate D2E/DX2                !
 ! R4    R(2,3)                  1.3947         estimate D2E/DX2                !
 ! R5    R(2,12)                 1.47           estimate D2E/DX2                !
 ! R6    R(3,4)                  1.3954         estimate D2E/DX2                !
 ! R7    R(3,7)                  1.0997         estimate D2E/DX2                !
 ! R8    R(4,5)                  1.3948         estimate D2E/DX2                !
 ! R9    R(4,8)                  1.0997         estimate D2E/DX2                !
 ! R10   R(5,6)                  1.3951         estimate D2E/DX2                !
 ! R11   R(5,9)                  1.0998         estimate D2E/DX2                !
 ! R12   R(6,10)                 1.0996         estimate D2E/DX2                !
 ! R13   R(11,17)                1.47           estimate D2E/DX2                !
 ! R14   R(11,24)                1.47           estimate D2E/DX2                !
 ! R15   R(12,13)                1.47           estimate D2E/DX2                !
 ! R16   R(12,21)                1.47           estimate D2E/DX2                !
 ! R17   R(13,14)                1.07           estimate D2E/DX2                !
 ! R18   R(13,15)                1.07           estimate D2E/DX2                !
 ! R19   R(13,16)                1.07           estimate D2E/DX2                !
 ! R20   R(17,18)                1.07           estimate D2E/DX2                !
 ! R21   R(17,19)                1.07           estimate D2E/DX2                !
 ! R22   R(17,20)                1.07           estimate D2E/DX2                !
 ! R23   R(21,22)                1.07           estimate D2E/DX2                !
 ! R24   R(21,23)                1.07           estimate D2E/DX2                !
 ! R25   R(21,27)                1.54           estimate D2E/DX2                !
 ! R26   R(24,25)                1.07           estimate D2E/DX2                !
 ! R27   R(24,26)                1.07           estimate D2E/DX2                !
 ! R28   R(24,31)                1.54           estimate D2E/DX2                !
 ! R29   R(27,28)                1.07           estimate D2E/DX2                !
 ! R30   R(27,29)                1.07           estimate D2E/DX2                !
 ! R31   R(27,30)                1.07           estimate D2E/DX2                !
 ! R32   R(31,32)                1.07           estimate D2E/DX2                !
 ! R33   R(31,33)                1.07           estimate D2E/DX2                !
 ! R34   R(31,34)                1.07           estimate D2E/DX2                !
 ! A1    A(2,1,6)              119.9985         estimate D2E/DX2                !
 ! A2    A(2,1,11)             119.9972         estimate D2E/DX2                !
 ! A3    A(6,1,11)             120.0043         estimate D2E/DX2                !
 ! A4    A(1,2,3)              120.0086         estimate D2E/DX2                !
 ! A5    A(1,2,12)             119.9808         estimate D2E/DX2                !
 ! A6    A(3,2,12)             120.0105         estimate D2E/DX2                !
 ! A7    A(2,3,4)              119.9942         estimate D2E/DX2                !
 ! A8    A(2,3,7)              120.0128         estimate D2E/DX2                !
 ! A9    A(4,3,7)              119.993          estimate D2E/DX2                !
 ! A10   A(3,4,5)              119.994          estimate D2E/DX2                !
 ! A11   A(3,4,8)              119.9811         estimate D2E/DX2                !
 ! A12   A(5,4,8)              120.0249         estimate D2E/DX2                !
 ! A13   A(4,5,6)              120.0047         estimate D2E/DX2                !
 ! A14   A(4,5,9)              120.0113         estimate D2E/DX2                !
 ! A15   A(6,5,9)              119.984          estimate D2E/DX2                !
 ! A16   A(1,6,5)              120.0            estimate D2E/DX2                !
 ! A17   A(1,6,10)             120.008          estimate D2E/DX2                !
 ! A18   A(5,6,10)             119.992          estimate D2E/DX2                !
 ! A19   A(1,11,17)            109.4712         estimate D2E/DX2                !
 ! A20   A(1,11,24)            109.4712         estimate D2E/DX2                !
 ! A21   A(17,11,24)           109.4713         estimate D2E/DX2                !
 ! A22   A(2,12,13)            109.4712         estimate D2E/DX2                !
 ! A23   A(2,12,21)            109.4712         estimate D2E/DX2                !
 ! A24   A(13,12,21)           109.4713         estimate D2E/DX2                !
 ! A25   A(12,13,14)           109.4712         estimate D2E/DX2                !
 ! A26   A(12,13,15)           109.4712         estimate D2E/DX2                !
 ! A27   A(12,13,16)           109.4712         estimate D2E/DX2                !
 ! A28   A(14,13,15)           109.4713         estimate D2E/DX2                !
 ! A29   A(14,13,16)           109.4712         estimate D2E/DX2                !
 ! A30   A(15,13,16)           109.4712         estimate D2E/DX2                !
 ! A31   A(11,17,18)           109.4712         estimate D2E/DX2                !
 ! A32   A(11,17,19)           109.4712         estimate D2E/DX2                !
 ! A33   A(11,17,20)           109.4712         estimate D2E/DX2                !
 ! A34   A(18,17,19)           109.4713         estimate D2E/DX2                !
 ! A35   A(18,17,20)           109.4712         estimate D2E/DX2                !
 ! A36   A(19,17,20)           109.4712         estimate D2E/DX2                !
 ! A37   A(12,21,22)           109.4712         estimate D2E/DX2                !
 ! A38   A(12,21,23)           109.4712         estimate D2E/DX2                !
 ! A39   A(12,21,27)           109.4712         estimate D2E/DX2                !
 ! A40   A(22,21,23)           109.4712         estimate D2E/DX2                !
 ! A41   A(22,21,27)           109.4713         estimate D2E/DX2                !
 ! A42   A(23,21,27)           109.4712         estimate D2E/DX2                !
 ! A43   A(11,24,25)           109.4712         estimate D2E/DX2                !
 ! A44   A(11,24,26)           109.4712         estimate D2E/DX2                !
 ! A45   A(11,24,31)           109.4712         estimate D2E/DX2                !
 ! A46   A(25,24,26)           109.4712         estimate D2E/DX2                !
 ! A47   A(25,24,31)           109.4713         estimate D2E/DX2                !
 ! A48   A(26,24,31)           109.4712         estimate D2E/DX2                !
 ! A49   A(21,27,28)           109.4712         estimate D2E/DX2                !
 ! A50   A(21,27,29)           109.4712         estimate D2E/DX2                !
 ! A51   A(21,27,30)           109.4712         estimate D2E/DX2                !
 ! A52   A(28,27,29)           109.4713         estimate D2E/DX2                !
 ! A53   A(28,27,30)           109.4712         estimate D2E/DX2                !
 ! A54   A(29,27,30)           109.4712         estimate D2E/DX2                !
 ! A55   A(24,31,32)           109.4712         estimate D2E/DX2                !
 ! A56   A(24,31,33)           109.4712         estimate D2E/DX2                !
 ! A57   A(24,31,34)           109.4712         estimate D2E/DX2                !
 ! A58   A(32,31,33)           109.4713         estimate D2E/DX2                !
 ! A59   A(32,31,34)           109.4712         estimate D2E/DX2                !
 ! A60   A(33,31,34)           109.4712         estimate D2E/DX2                !
 ! D1    D(6,1,2,3)              0.0323         estimate D2E/DX2                !
 ! D2    D(6,1,2,12)           179.9532         estimate D2E/DX2                !
 ! D3    D(11,1,2,3)          -179.9729         estimate D2E/DX2                !
 ! D4    D(11,1,2,12)           -0.052          estimate D2E/DX2                !
 ! D5    D(2,1,6,5)              0.0149         estimate D2E/DX2                !
 ! D6    D(2,1,6,10)           179.9892         estimate D2E/DX2                !
 ! D7    D(11,1,6,5)          -179.9798         estimate D2E/DX2                !
 ! D8    D(11,1,6,10)           -0.0056         estimate D2E/DX2                !
 ! D9    D(2,1,11,17)          120.0212         estimate D2E/DX2                !
 ! D10   D(2,1,11,24)         -119.9788         estimate D2E/DX2                !
 ! D11   D(6,1,11,17)          -59.9841         estimate D2E/DX2                !
 ! D12   D(6,1,11,24)           60.0159         estimate D2E/DX2                !
 ! D13   D(1,2,3,4)             -0.0568         estimate D2E/DX2                !
 ! D14   D(1,2,3,7)            179.9619         estimate D2E/DX2                !
 ! D15   D(12,2,3,4)          -179.9777         estimate D2E/DX2                !
 ! D16   D(12,2,3,7)             0.041          estimate D2E/DX2                !
 ! D17   D(1,2,12,13)         -120.004          estimate D2E/DX2                !
 ! D18   D(1,2,12,21)          119.996          estimate D2E/DX2                !
 ! D19   D(3,2,12,13)           59.9169         estimate D2E/DX2                !
 ! D20   D(3,2,12,21)          -60.0831         estimate D2E/DX2                !
 ! D21   D(2,3,4,5)              0.0341         estimate D2E/DX2                !
 ! D22   D(2,3,4,8)           -179.9964         estimate D2E/DX2                !
 ! D23   D(7,3,4,5)           -179.9846         estimate D2E/DX2                !
 ! D24   D(7,3,4,8)             -0.0151         estimate D2E/DX2                !
 ! D25   D(3,4,5,6)              0.0131         estimate D2E/DX2                !
 ! D26   D(3,4,5,9)           -179.9995         estimate D2E/DX2                !
 ! D27   D(8,4,5,6)           -179.9563         estimate D2E/DX2                !
 ! D28   D(8,4,5,9)              0.0311         estimate D2E/DX2                !
 ! D29   D(4,5,6,1)             -0.0376         estimate D2E/DX2                !
 ! D30   D(4,5,6,10)           179.9881         estimate D2E/DX2                !
 ! D31   D(9,5,6,1)            179.975          estimate D2E/DX2                !
 ! D32   D(9,5,6,10)             0.0007         estimate D2E/DX2                !
 ! D33   D(1,11,17,18)          82.7187         estimate D2E/DX2                !
 ! D34   D(1,11,17,19)        -157.2813         estimate D2E/DX2                !
 ! D35   D(1,11,17,20)         -37.2813         estimate D2E/DX2                !
 ! D36   D(24,11,17,18)        -37.2813         estimate D2E/DX2                !
 ! D37   D(24,11,17,19)         82.7187         estimate D2E/DX2                !
 ! D38   D(24,11,17,20)       -157.2813         estimate D2E/DX2                !
 ! D39   D(1,11,24,25)         -75.8746         estimate D2E/DX2                !
 ! D40   D(1,11,24,26)          44.1254         estimate D2E/DX2                !
 ! D41   D(1,11,24,31)         164.1254         estimate D2E/DX2                !
 ! D42   D(17,11,24,25)         44.1254         estimate D2E/DX2                !
 ! D43   D(17,11,24,26)        164.1254         estimate D2E/DX2                !
 ! D44   D(17,11,24,31)        -75.8746         estimate D2E/DX2                !
 ! D45   D(2,12,13,14)         161.0097         estimate D2E/DX2                !
 ! D46   D(2,12,13,15)         -78.9903         estimate D2E/DX2                !
 ! D47   D(2,12,13,16)          41.0097         estimate D2E/DX2                !
 ! D48   D(21,12,13,14)        -78.9903         estimate D2E/DX2                !
 ! D49   D(21,12,13,15)         41.0097         estimate D2E/DX2                !
 ! D50   D(21,12,13,16)        161.0097         estimate D2E/DX2                !
 ! D51   D(2,12,21,22)          73.3296         estimate D2E/DX2                !
 ! D52   D(2,12,21,23)         -46.6704         estimate D2E/DX2                !
 ! D53   D(2,12,21,27)        -166.6704         estimate D2E/DX2                !
 ! D54   D(13,12,21,22)        -46.6704         estimate D2E/DX2                !
 ! D55   D(13,12,21,23)       -166.6704         estimate D2E/DX2                !
 ! D56   D(13,12,21,27)         73.3296         estimate D2E/DX2                !
 ! D57   D(12,21,27,28)        150.1291         estimate D2E/DX2                !
 ! D58   D(12,21,27,29)        -89.8709         estimate D2E/DX2                !
 ! D59   D(12,21,27,30)         30.1291         estimate D2E/DX2                !
 ! D60   D(22,21,27,28)        -89.871          estimate D2E/DX2                !
 ! D61   D(22,21,27,29)         30.1291         estimate D2E/DX2                !
 ! D62   D(22,21,27,30)        150.129          estimate D2E/DX2                !
 ! D63   D(23,21,27,28)         30.1291         estimate D2E/DX2                !
 ! D64   D(23,21,27,29)        150.1291         estimate D2E/DX2                !
 ! D65   D(23,21,27,30)        -89.8709         estimate D2E/DX2                !
 ! D66   D(11,24,31,32)         98.4567         estimate D2E/DX2                !
 ! D67   D(11,24,31,33)       -141.5433         estimate D2E/DX2                !
 ! D68   D(11,24,31,34)        -21.5433         estimate D2E/DX2                !
 ! D69   D(25,24,31,32)        -21.5433         estimate D2E/DX2                !
 ! D70   D(25,24,31,33)         98.4567         estimate D2E/DX2                !
 ! D71   D(25,24,31,34)       -141.5433         estimate D2E/DX2                !
 ! D72   D(26,24,31,32)       -141.5433         estimate D2E/DX2                !
 ! D73   D(26,24,31,33)        -21.5433         estimate D2E/DX2                !
 ! D74   D(26,24,31,34)         98.4567         estimate D2E/DX2                !
 --------------------------------------------------------------------------------
 Trust Radius=3.00D-01 FncErr=1.00D-07 GrdErr=1.00D-06 EigMax=2.50D+02 EigMin=1.00D-04
 Number of steps in this run=    178 maximum allowed number of steps=    204.
 GradGradGradGradGradGradGradGradGradGradGradGradGradGradGradGradGradGrad

                          Input orientation:                          
 ---------------------------------------------------------------------
 Center     Atomic      Atomic             Coordinates (Angstroms)
 Number     Number       Type             X           Y           Z
 ---------------------------------------------------------------------
      1          6           0       -0.323529    0.397059    0.000000
      2          6           0        1.071631    0.397059    0.000000
      3          6           0        1.769169    1.604810    0.000000
      4          6           0        1.071515    2.813319   -0.001199
      5          6           0       -0.323310    2.813241   -0.001678
      6          6           0       -1.020911    1.605035   -0.000682
      7          1           0        2.868849    1.604890    0.000634
      8          1           0        1.621715    3.765462   -0.001258
      9          1           0       -0.873432    3.765522   -0.002631
     10          1           0       -2.120515    1.605218   -0.000862
     11          7           0       -1.058468   -0.876034    0.000602
     12          7           0        1.806203   -0.876244    0.001758
     13          6           0        2.651374   -0.952699    1.202067
     14          1           0        2.921879   -1.971922    1.383480
     15          1           0        3.536281   -0.369956    1.052902
     16          1           0        2.111153   -0.571870    2.043513
     17          6           0       -1.903973   -0.953156    1.200632
     18          1           0       -2.817681   -0.423854    1.027783
     19          1           0       -2.121187   -1.977945    1.418635
     20          1           0       -1.388485   -0.513805    2.028970
     21          6           0        2.651230   -0.956096   -1.198431
     22          1           0        3.486665   -0.296248   -1.090969
     23          1           0        2.079552   -0.670871   -2.056762
     24          6           0       -1.903205   -0.954734   -1.199867
     25          1           0       -2.761534   -0.328435   -1.073689
     26          1           0       -1.344388   -0.626689   -2.051343
     27          6           0        3.156882   -2.399948   -1.375083
     28          1           0        3.301200   -2.602497   -2.415778
     29          1           0        4.085265   -2.518681   -0.856520
     30          1           0        2.435510   -3.081863   -0.975689
     31          6           0       -2.357092   -2.410721   -1.413616
     32          1           0       -3.346473   -2.536439   -1.026032
     33          1           0       -2.352540   -2.635820   -2.459660
     34          1           0       -1.687627   -3.071530   -0.903667
 ---------------------------------------------------------------------
                    Distance matrix (angstroms):
                    1          2          3          4          5
     1  C    0.000000
     2  C    1.395160   0.000000
     3  C    2.416205   1.394712   0.000000
     4  C    2.790065   2.416260   1.395427   0.000000
     5  C    2.416183   2.789946   2.416356   1.394825   0.000000
     6  C    1.394829   2.416183   2.790080   2.416236   1.395138
     7  H    3.413229   2.165375   1.099680   2.165806   3.413209
     8  H    3.889745   3.413024   2.165678   1.099680   2.165606
     9  H    3.413055   3.889707   3.413506   2.165528   1.099761
    10  H    2.165365   3.413128   3.889684   3.412999   2.165471
    11  N    1.470000   2.481549   3.761664   4.260065   3.761809
    12  N    2.481343   1.470000   2.481331   3.762001   4.259946
    13  C    3.480928   2.400500   2.960422   4.257545   4.947732
    14  H    4.249560   3.309004   4.004469   5.314105   5.945393
    15  H    4.073702   2.787725   2.851488   4.161663   5.112858
    16  H    3.323018   2.489051   3.005134   4.089156   4.644178
    17  C    2.400500   3.481208   4.634293   4.948157   4.257909
    18  H    2.819757   4.105725   5.119668   5.163713   4.214316
    19  H    3.299203   4.224601   5.475721   5.930049   5.310849
    20  H    2.465872   3.316408   4.309992   4.609006   4.040713
    21  C    3.480870   2.400500   2.961842   4.258797   4.948536
    22  H    4.023490   2.739211   2.784605   4.085334   5.037002
    23  H    3.338494   2.527182   3.083072   4.169060   4.704908
    24  C    2.400500   3.480901   4.634358   4.948129   4.257858
    25  H    2.760981   4.046270   5.041578   5.070810   4.118771
    26  H    2.509626   3.330648   4.345323   4.676894   4.132414
    27  C    4.671977   3.749983   4.455860   5.780525   6.416800
    28  H    5.288855   4.450202   5.087685   6.335042   6.949473
    29  H    5.354684   4.279855   4.806361   6.184213   6.971060
    30  H    4.546115   3.861998   4.833309   6.128889   6.581188
    31  C    3.743970   4.651674   5.928644   6.406313   5.780970
    32  H    4.335474   5.401647   6.661266   7.013473   6.229597
    33  H    4.400587   5.193576   6.404792   6.889216   6.312822
    34  H    3.835164   4.523408   5.885083   6.561917   6.107820
                    6          7          8          9         10
     6  C    0.000000
     7  H    3.889760   0.000000
     8  H    3.413344   2.494678   0.000000
     9  H    2.165516   4.321228   2.495147   0.000000
    10  H    1.099604   4.989364   4.320988   2.494420   0.000000
    11  N    2.481353   4.645298   5.359745   4.645244   2.698992
    12  N    3.761559   2.699119   4.645372   5.359707   4.645081
    13  C    4.634035   2.834078   4.976869   6.011419   5.546251
    14  H    5.500557   3.835187   6.043633   7.017404   6.335462
    15  H    5.077265   2.335112   4.677445   6.136928   6.083672
    16  H    4.327525   3.079892   4.820071   5.648665   5.179401
    17  C    2.960962   5.546478   6.011686   4.977527   2.834741
    18  H    2.898709   6.124333   6.190115   4.732096   2.379345
    19  H    4.007844   6.304592   7.000866   6.046842   3.854093
    20  H    2.957039   5.169904   5.612063   4.765010   3.024292
    21  C    4.634503   2.836153   4.978577   6.012226   5.546535
    22  H    5.012170   2.277634   4.600325   6.057466   6.020330
    23  H    4.361202   3.167800   4.910780   5.711493   5.200757
    24  C    2.961233   5.546654   6.011819   4.977411   2.835170
    25  H    2.814146   6.049225   6.092862   4.633851   2.302363
    26  H    3.048023   5.190561   5.682570   4.869347   3.128619
    27  C    5.948346   4.244324   6.500494   7.492668   6.766148
    28  H    6.497435   4.871148   7.014377   7.987647   7.275416
    29  H    6.618952   4.383859   6.803749   8.050405   7.500027
    30  H    5.904617   4.806936   6.964024   7.666982   6.608811
    31  C    4.461844   6.740600   7.481369   6.506773   4.263755
    32  H    4.859154   7.538890   8.089932   6.846750   4.439286
    33  H    5.079829   7.162372   7.925582   7.014409   4.907742
    34  H    4.809381   6.591519   7.649218   6.944066   4.782721
                   11         12         13         14         15
    11  N    0.000000
    12  N    2.864671   0.000000
    13  C    3.900297   1.470000   0.000000
    14  H    4.353904   2.086720   1.070000   0.000000
    15  H    4.740798   2.086720   1.070000   1.747303   0.000000
    16  H    3.783186   2.086720   1.070000   1.747303   1.747303
    17  C    1.470000   3.899823   4.555347   4.935601   5.473418
    18  H    2.086720   4.757908   5.497327   5.955299   6.354240
    19  H    2.086720   4.318064   4.886242   5.043192   5.892905
    20  H    2.086720   3.800919   4.146909   4.595868   5.022621
    21  C    3.899480   1.470000   2.400500   2.787726   2.489051
    22  H    4.710192   2.086720   2.527183   3.041343   2.145711
    23  H    3.757925   2.086720   3.320598   3.773263   3.447117
    24  C    1.470000   3.899971   5.149124   5.566847   5.916497
    25  H    2.086720   4.724500   5.904942   6.406240   6.647299
    26  H    2.086720   3.768783   5.163049   5.639920   5.789920
    27  C    4.688709   2.457987   2.998628   2.801446   3.187464
    28  H    5.275061   3.325574   4.029009   3.869867   4.131736
    29  H    5.467260   2.937408   2.957385   2.582637   2.926482
    30  H    4.245787   2.493227   3.053286   2.652206   3.561083
    31  C    2.457987   4.657352   5.835439   5.990311   6.706733
    32  H    3.007638   5.510233   6.591420   6.739189   7.509188
    33  H    3.290039   5.142940   6.424974   6.559725   7.221527
    34  H    2.456368   4.224443   5.267873   5.261912   6.198054
                   16         17         18         19         20
    16  H    0.000000
    17  C    4.120323   0.000000
    18  H    5.034582   1.070000   0.000000
    19  H    4.503357   1.070000   1.747303   0.000000
    20  H    3.500150   1.070000   1.747303   1.747303   0.000000
    21  C    3.309005   5.148338   5.928600   5.537975   5.189512
    22  H    3.434090   5.894229   6.652080   6.369790   5.792102
    23  H    4.101591   5.153520   5.792955   5.606517   5.361451
    24  C    5.175052   2.400500   2.465872   2.819758   3.299204
    25  H    5.789584   2.509626   2.104386   3.056568   3.397958
    26  H    5.358322   3.315880   3.419467   3.803953   4.082113
    27  C    4.015248   5.860014   6.736031   5.986732   5.983768
    28  H    5.042314   6.549242   7.351551   6.670462   6.790550
    29  H    4.012155   6.523321   7.455841   6.632403   6.504424
    30  H    3.939651   5.300837   6.218917   5.264495   5.499622
    31  C    5.941239   3.027227   3.181227   2.874820   4.048195
    32  H    6.562570   3.089600   2.993458   2.790993   4.154251
    33  H    6.668059   4.053432   4.155889   3.940495   5.057683
    34  H    5.418939   2.993725   3.466657   2.603265   3.902794
                   21         22         23         24         25
    21  C    0.000000
    22  H    1.070000   0.000000
    23  H    1.070000   1.747303   0.000000
    24  C    4.554435   5.431037   4.083772   0.000000
    25  H    5.450462   6.248306   4.951748   1.070000   0.000000
    26  H    4.098894   4.936657   3.424229   1.070000   1.747303
    27  C    1.540000   2.148263   2.148263   5.265342   6.277711
    28  H    2.148263   2.666141   2.313546   5.592798   6.612814
    29  H    2.148263   2.313547   2.979575   6.198838   7.191870
    30  H    2.148263   2.979575   2.666140   4.837291   5.882197
    31  C    5.219725   6.222909   4.808797   1.540000   2.148263
    32  H    6.204808   7.191276   5.829622   2.148263   2.284667
    33  H    5.426775   6.437642   4.864853   2.148263   2.722539
    34  H    4.836075   5.874570   4.613504   2.148263   2.950720
                   26         27         28         29         30
    26  H    0.000000
    27  C    4.884998   0.000000
    28  H    5.061434   1.070000   0.000000
    29  H    5.872680   1.070000   1.747303   0.000000
    30  H    4.633847   1.070000   1.747303   1.747303   0.000000
    31  C    2.148263   5.514119   5.749554   6.467301   4.859141
    32  H    2.950720   6.514145   6.791709   7.433692   5.807870
    33  H    2.284666   5.620114   5.654009   6.635444   5.032549
    34  H    2.722539   4.913504   5.234010   5.799495   4.123779
                   31         32         33         34
    31  C    0.000000
    32  H    1.070000   0.000000
    33  H    1.070000   1.747303   0.000000
    34  H    1.070000   1.747303   1.747303   0.000000
 Stoichiometry    C12H20N2
 Framework group  C1[X(C12H20N2)]
 Deg. of freedom    96
 Full point group                 C1      NOp   1
 Largest Abelian subgroup         C1      NOp   1
 Largest concise Abelian subgroup C1      NOp   1
                         Standard orientation:                         
 ---------------------------------------------------------------------
 Center     Atomic      Atomic             Coordinates (Angstroms)
 Number     Number       Type             X           Y           Z
 ---------------------------------------------------------------------
      1          6           0       -0.706654    0.610511    0.078382
      2          6           0        0.688459    0.621678    0.075627
      3          6           0        1.376017    1.803905   -0.197916
      4          6           0        0.668423    2.975433   -0.470041
      5          6           0       -0.726354    2.964083   -0.467736
      6          6           0       -1.413971    1.781637   -0.193120
      7          1           0        2.475659    1.812929   -0.199488
      8          1           0        1.210755    3.907442   -0.685750
      9          1           0       -1.284308    3.887219   -0.682172
     10          1           0       -2.513539    1.772973   -0.191165
     11          7           0       -1.431072   -0.635539    0.367310
     12          7           0        1.433504   -0.612552    0.362825
     13          6           0        2.279420   -0.409774    1.547817
     14          1           0        2.558341   -1.359698    1.953710
     15          1           0        3.159475    0.131427    1.269422
     16          1           0        1.736180    0.146547    2.282866
     17          6           0       -2.275768   -0.447007    1.555520
     18          1           0       -3.193829    0.022395    1.269645
     19          1           0       -2.484500   -1.398012    1.999279
     20          1           0       -1.763820    0.171826    2.262525
     21          6           0        2.279015   -0.954054   -0.790165
     22          1           0        3.108995   -0.280296   -0.835813
     23          1           0        1.704902   -0.874183   -1.689562
     24          6           0       -2.275276   -0.989508   -0.782876
     25          1           0       -3.138724   -0.357776   -0.799383
     26          1           0       -1.719285   -0.857326   -1.687476
     27          6           0        2.796532   -2.396480   -0.637901
     28          1           0        2.942389   -2.827185   -1.606467
     29          1           0        3.725925   -2.387861   -0.107756
     30          1           0        2.080855   -2.976599   -0.093688
     31          6           0       -2.717171   -2.459796   -0.662125
     32          1           0       -3.705435   -2.502851   -0.254227
     33          1           0       -2.710889   -2.914795   -1.630544
     34          1           0       -2.042219   -2.983306   -0.017704
 ---------------------------------------------------------------------
 Rotational constants (GHZ):           0.7281133           0.6164017           0.4016326
 Standard basis: 6-31G(d) (6D, 7F)
 There are   250 symmetry adapted cartesian basis functions of A   symmetry.
 There are   250 symmetry adapted basis functions of A   symmetry.
   250 basis functions,   472 primitive gaussians,   250 cartesian basis functions
    53 alpha electrons       53 beta electrons
       nuclear repulsion energy       936.2966591895 Hartrees.
 NAtoms=   34 NActive=   34 NUniq=   34 SFac= 1.00D+00 NAtFMM=   60 NAOKFM=F Big=F
 Integral buffers will be    131072 words long.
 Raffenetti 2 integral format.
 Two-electron integral symmetry is turned on.
 ------------------------------------------------------------------------------
 Polarizable Continuum Model (PCM)
 =================================
 Model                : PCM.
 Atomic radii         : SMD-Coulomb.
 Polarization charges : Total charges.
 Charge compensation  : None.
 Solution method      : On-the-fly selection.
 Cavity type          : VdW (van der Waals Surface) (Alpha=1.000).
 Cavity algorithm     : GePol (No added spheres)
                        Default sphere list used, NSphG=   34.
                        Lebedev-Laikov grids with approx.  5.0 points / Ang**2.
                        Smoothing algorithm: York/Karplus (Gamma=1.0000).
                        Polarization charges: spherical gaussians, with
                                              point-specific exponents (IZeta= 3).
                        Self-potential: point-specific (ISelfS= 7).
                        Self-field    : sphere-specific E.n sum rule (ISelfD= 2).
 1st derivatives      : Analytical E(r).r(x)/FMM algorithm (CHGder, D1EAlg=3).
                        Cavity 1st derivative terms included.
 Solvent              : Toluene, Eps=   2.374100 Eps(inf)=   2.238315
 ------------------------------------------------------------------------------
 ------------------------------------------------------------------------------
 Atomic radii for non-electrostatic terms: SMD-CDS.
 ------------------------------------------------------------------------------
 Nuclear repulsion after PCM non-electrostatic terms =      936.2889542555 Hartrees.
 One-electron integrals computed using PRISM.
 NBasis=   250 RedAO= T EigKep=  3.44D-04  NBF=   250
 NBsUse=   250 1.00D-06 EigRej= -1.00D+00 NBFU=   250
 ExpMin= 1.61D-01 ExpMax= 4.17D+03 ExpMxC= 6.27D+02 IAcc=3 IRadAn=         5 AccDes= 0.00D+00
 Harris functional with IExCor=  402 and IRadAn=       5 diagonalized for initial guess.
 HarFok:  IExCor=  402 AccDes= 0.00D+00 IRadAn=         5 IDoV= 1 UseB2=F ITyADJ=14
 ICtDFT=  3500011 ScaDFX=  1.000000  1.000000  1.000000  1.000000
 FoFCou: FMM=F IPFlag=           0 FMFlag=      100000 FMFlg1=           0
         NFxFlg=           0 DoJE=T BraDBF=F KetDBF=T FulRan=T
         wScrn=  0.000000 ICntrl=       500 IOpCl=  0 I1Cent=   200000004 NGrid=           0
         NMat0=    1 NMatS0=      1 NMatT0=    0 NMatD0=    1 NMtDS0=    0 NMtDT0=    0
 Petite list used in FoFCou.
 Requested convergence on RMS density matrix=1.00D-08 within 128 cycles.
 Requested convergence on MAX density matrix=1.00D-06.
 Requested convergence on             energy=1.00D-06.
 No special actions if energy rises.
 Inv3:  Mode=1 IEnd=    16036032.
 Iteration    1 A*A^-1 deviation from unit magnitude is 3.55D-15 for   2300.
 Iteration    1 A*A^-1 deviation from orthogonality  is 1.70D-15 for   1210    497.
 Iteration    1 A^-1*A deviation from unit magnitude is 3.44D-15 for   2307.
 Iteration    1 A^-1*A deviation from orthogonality  is 1.18D-15 for   2168   1376.
 Error on total polarization charges =  0.03373
 SCF Done:  E(RB3LYP) =  -578.781700623     A.U. after   12 cycles
            NFock= 12  Conv=0.36D-08     -V/T= 2.0088
 SMD-CDS (non-electrostatic) energy       (kcal/mol) =      -4.83
 (included in total energy above)

 **********************************************************************

            Population analysis using the SCF Density.

 **********************************************************************

 Orbital symmetries:
       Occupied  (A) (A) (A) (A) (A) (A) (A) (A) (A) (A) (A) (A)
                 (A) (A) (A) (A) (A) (A) (A) (A) (A) (A) (A) (A)
                 (A) (A) (A) (A) (A) (A) (A) (A) (A) (A) (A) (A)
                 (A) (A) (A) (A) (A) (A) (A) (A) (A) (A) (A) (A)
                 (A) (A) (A) (A) (A)
       Virtual   (A) (A) (A) (A) (A) (A) (A) (A) (A) (A) (A) (A)
                 (A) (A) (A) (A) (A) (A) (A) (A) (A) (A) (A) (A)
                 (A) (A) (A) (A) (A) (A) (A) (A) (A) (A) (A) (A)
                 (A) (A) (A) (A) (A) (A) (A) (A) (A) (A) (A) (A)
                 (A) (A) (A) (A) (A) (A) (A) (A) (A) (A) (A) (A)
                 (A) (A) (A) (A) (A) (A) (A) (A) (A) (A) (A) (A)
                 (A) (A) (A) (A) (A) (A) (A) (A) (A) (A) (A) (A)
                 (A) (A) (A) (A) (A) (A) (A) (A) (A) (A) (A) (A)
                 (A) (A) (A) (A) (A) (A) (A) (A) (A) (A) (A) (A)
                 (A) (A) (A) (A) (A) (A) (A) (A) (A) (A) (A) (A)
                 (A) (A) (A) (A) (A) (A) (A) (A) (A) (A) (A) (A)
                 (A) (A) (A) (A) (A) (A) (A) (A) (A) (A) (A) (A)
                 (A) (A) (A) (A) (A) (A) (A) (A) (A) (A) (A) (A)
                 (A) (A) (A) (A) (A) (A) (A) (A) (A) (A) (A) (A)
                 (A) (A) (A) (A) (A) (A) (A) (A) (A) (A) (A) (A)
                 (A) (A) (A) (A) (A) (A) (A) (A) (A) (A) (A) (A)
                 (A) (A) (A) (A) (A)
 The electronic state is 1-A.
 Alpha  occ. eigenvalues --  -14.31288 -14.31273 -10.20529 -10.20473 -10.18899
 Alpha  occ. eigenvalues --  -10.18870 -10.18493 -10.18439 -10.18259 -10.18259
 Alpha  occ. eigenvalues --  -10.18235 -10.18227 -10.15451 -10.15380  -0.92433
 Alpha  occ. eigenvalues --   -0.90342  -0.83297  -0.74759  -0.74348  -0.72538
 Alpha  occ. eigenvalues --   -0.71985  -0.66711  -0.65821  -0.61327  -0.59844
 Alpha  occ. eigenvalues --   -0.56603  -0.56178  -0.50848  -0.47873  -0.47152
 Alpha  occ. eigenvalues --   -0.45594  -0.45431  -0.44558  -0.42688  -0.42475
 Alpha  occ. eigenvalues --   -0.42271  -0.39888  -0.39715  -0.39059  -0.38703
 Alpha  occ. eigenvalues --   -0.36923  -0.36521  -0.35483  -0.35291  -0.34604
 Alpha  occ. eigenvalues --   -0.33692  -0.33402  -0.32525  -0.32286  -0.24190
 Alpha  occ. eigenvalues --   -0.23583  -0.21834  -0.19826
 Alpha virt. eigenvalues --    0.00181   0.00981   0.08944   0.09643   0.10505
 Alpha virt. eigenvalues --    0.13213   0.13639   0.13995   0.15338   0.15683
 Alpha virt. eigenvalues --    0.16049   0.16882   0.17142   0.17800   0.18340
 Alpha virt. eigenvalues --    0.18776   0.19554   0.19671   0.20775   0.21075
 Alpha virt. eigenvalues --    0.21159   0.22004   0.23133   0.23914   0.24505
 Alpha virt. eigenvalues --    0.25443   0.25663   0.25966   0.28621   0.29858
 Alpha virt. eigenvalues --    0.31409   0.34218   0.34700   0.35583   0.39180
 Alpha virt. eigenvalues --    0.47846   0.49825   0.50976   0.52164   0.52879
 Alpha virt. eigenvalues --    0.53240   0.55225   0.55446   0.56422   0.56579
 Alpha virt. eigenvalues --    0.57171   0.57892   0.58335   0.59685   0.60616
 Alpha virt. eigenvalues --    0.60959   0.61512   0.61611   0.64120   0.64823
 Alpha virt. eigenvalues --    0.64900   0.67764   0.68107   0.69208   0.70960
 Alpha virt. eigenvalues --    0.71261   0.77002   0.77530   0.80548   0.80903
 Alpha virt. eigenvalues --    0.81497   0.83119   0.83400   0.84052   0.85364
 Alpha virt. eigenvalues --    0.85563   0.87557   0.87675   0.88210   0.89373
 Alpha virt. eigenvalues --    0.89932   0.90030   0.90795   0.91821   0.92371
 Alpha virt. eigenvalues --    0.93031   0.93277   0.95192   0.97234   0.97506
 Alpha virt. eigenvalues --    0.97700   0.98204   0.99288   1.00238   1.00726
 Alpha virt. eigenvalues --    1.02000   1.03134   1.05455   1.05580   1.06210
 Alpha virt. eigenvalues --    1.07733   1.11866   1.14632   1.15368   1.17324
 Alpha virt. eigenvalues --    1.20618   1.23509   1.25214   1.29982   1.32817
 Alpha virt. eigenvalues --    1.33923   1.36286   1.36595   1.39753   1.42016
 Alpha virt. eigenvalues --    1.44414   1.45039   1.45268   1.49460   1.50438
 Alpha virt. eigenvalues --    1.54143   1.61955   1.63734   1.65370   1.67666
 Alpha virt. eigenvalues --    1.69468   1.77444   1.79347   1.80583   1.82631
 Alpha virt. eigenvalues --    1.83329   1.86431   1.86579   1.88811   1.90945
 Alpha virt. eigenvalues --    1.91255   1.95034   1.97334   1.98636   1.98859
 Alpha virt. eigenvalues --    2.00168   2.00714   2.02320   2.03469   2.05398
 Alpha virt. eigenvalues --    2.10946   2.12390   2.12705   2.12962   2.15749
 Alpha virt. eigenvalues --    2.16469   2.19286   2.20791   2.21793   2.24875
 Alpha virt. eigenvalues --    2.25702   2.27046   2.29949   2.30551   2.31397
 Alpha virt. eigenvalues --    2.31757   2.35759   2.36463   2.36998   2.38795
 Alpha virt. eigenvalues --    2.41397   2.44459   2.46357   2.48406   2.53340
 Alpha virt. eigenvalues --    2.54953   2.57942   2.59744   2.61229   2.64808
 Alpha virt. eigenvalues --    2.68564   2.69191   2.73726   2.73990   2.77098
 Alpha virt. eigenvalues --    2.79566   2.85025   2.85898   2.87855   2.90729
 Alpha virt. eigenvalues --    3.06792   3.19376   3.44359   4.06164   4.10513
 Alpha virt. eigenvalues --    4.15660   4.20746   4.21020   4.22678   4.27801
 Alpha virt. eigenvalues --    4.29028   4.36373   4.36757   4.45584   4.47497
 Alpha virt. eigenvalues --    4.57234   4.77333
          Condensed to atoms (all electrons):
               1          2          3          4          5          6
     1  C    4.780935   0.543103  -0.064009  -0.034703  -0.012953   0.471888
     2  C    0.543103   4.780913   0.472453  -0.013135  -0.034657  -0.064614
     3  C   -0.064009   0.472453   5.121558   0.494794  -0.028516  -0.055589
     4  C   -0.034703  -0.013135   0.494794   4.910605   0.539617  -0.028400
     5  C   -0.012953  -0.034657  -0.028516   0.539617   4.910896   0.494603
     6  C    0.471888  -0.064614  -0.055589  -0.028400   0.494603   5.122710
     7  H    0.003824  -0.041000   0.357171  -0.041393   0.004394   0.000383
     8  H    0.000938   0.002419  -0.035841   0.354868  -0.040259   0.004263
     9  H    0.002434   0.000933   0.004282  -0.040258   0.354814  -0.035853
    10  H   -0.041236   0.003799   0.000377   0.004423  -0.041835   0.357831
    11  N    0.320516  -0.075465   0.006614  -0.000145   0.006356  -0.091054
    12  N   -0.075105   0.319481  -0.090173   0.006312  -0.000138   0.006608
    13  C    0.001130  -0.051805  -0.007276   0.000082   0.000026  -0.000184
    14  H    0.000345   0.004571  -0.000034   0.000013  -0.000001   0.000007
    15  H   -0.001012  -0.006880   0.005743  -0.000401   0.000006   0.000003
    16  H    0.001110   0.001570   0.000723  -0.000159  -0.000013  -0.000142
    17  C   -0.051591   0.001217  -0.000179   0.000031   0.000011  -0.007502
    18  H   -0.006207  -0.000963   0.000004   0.000005  -0.000335   0.005306
    19  H    0.004450   0.000397   0.000007  -0.000001   0.000014  -0.000046
    20  H    0.001595   0.000901  -0.000170  -0.000011  -0.000207   0.001230
    21  C    0.001393  -0.050913  -0.006830   0.000355   0.000007  -0.000137
    22  H   -0.001111  -0.008609   0.007210  -0.000404   0.000005   0.000006
    23  H    0.001516   0.002329  -0.000433  -0.000110  -0.000014  -0.000120
    24  C   -0.051686   0.001502  -0.000129   0.000009   0.000321  -0.006854
    25  H   -0.008296  -0.001085   0.000006   0.000005  -0.000353   0.006957
    26  H    0.002430   0.001417  -0.000134  -0.000013  -0.000138  -0.000238
    27  C    0.000250   0.005296   0.000005   0.000004  -0.000000   0.000004
    28  H   -0.000008  -0.000191   0.000014  -0.000000   0.000000  -0.000000
    29  H   -0.000005  -0.000012  -0.000021  -0.000000   0.000000  -0.000000
    30  H   -0.000126   0.000349   0.000058  -0.000000   0.000000   0.000001
    31  C    0.005525   0.000264   0.000004  -0.000000   0.000004   0.000000
    32  H   -0.000049  -0.000006  -0.000000   0.000000  -0.000000  -0.000014
    33  H   -0.000223  -0.000009  -0.000000   0.000000  -0.000000   0.000015
    34  H    0.000475  -0.000141   0.000001   0.000000  -0.000000   0.000060
               7          8          9         10         11         12
     1  C    0.003824   0.000938   0.002434  -0.041236   0.320516  -0.075105
     2  C   -0.041000   0.002419   0.000933   0.003799  -0.075465   0.319481
     3  C    0.357171  -0.035841   0.004282   0.000377   0.006614  -0.090173
     4  C   -0.041393   0.354868  -0.040258   0.004423  -0.000145   0.006312
     5  C    0.004394  -0.040259   0.354814  -0.041835   0.006356  -0.000138
     6  C    0.000383   0.004263  -0.035853   0.357831  -0.091054   0.006608
     7  H    0.577433  -0.004512  -0.000178   0.000014  -0.000091  -0.010013
     8  H   -0.004512   0.585182  -0.004842  -0.000178   0.000005  -0.000127
     9  H   -0.000178  -0.004842   0.585227  -0.004529  -0.000126   0.000005
    10  H    0.000014  -0.000178  -0.004529   0.578567  -0.010300  -0.000091
    11  N   -0.000091   0.000005  -0.000126  -0.010300   6.948071  -0.001398
    12  N   -0.010013  -0.000127   0.000005  -0.000091  -0.001398   6.946959
    13  C    0.000941  -0.000003  -0.000000   0.000003   0.000741   0.300369
    14  H   -0.000133  -0.000000  -0.000000  -0.000000  -0.000019  -0.042941
    15  H    0.003267   0.000016   0.000000  -0.000000   0.000008  -0.049096
    16  H    0.000382   0.000000  -0.000000   0.000002   0.000129  -0.035274
    17  C    0.000003  -0.000000  -0.000003   0.001263   0.298581   0.000779
    18  H   -0.000000   0.000000   0.000013   0.002813  -0.048140   0.000007
    19  H   -0.000000  -0.000000  -0.000000  -0.000130  -0.044118  -0.000019
    20  H    0.000002  -0.000000   0.000001   0.000480  -0.035184   0.000108
    21  C    0.000271  -0.000005   0.000000   0.000002   0.000973   0.313357
    22  H    0.003961   0.000020   0.000000  -0.000000   0.000008  -0.050223
    23  H    0.000255  -0.000001  -0.000000   0.000002   0.000167  -0.041358
    24  C    0.000003   0.000000  -0.000005   0.000500   0.313372   0.000969
    25  H   -0.000000   0.000000   0.000017   0.003760  -0.049195   0.000006
    26  H    0.000002  -0.000000  -0.000001   0.000286  -0.041008   0.000151
    27  C   -0.000153  -0.000000  -0.000000  -0.000000  -0.000121  -0.067773
    28  H    0.000007   0.000000  -0.000000   0.000000  -0.000001   0.004153
    29  H   -0.000001   0.000000   0.000000   0.000000   0.000001  -0.000081
    30  H    0.000003   0.000000   0.000000  -0.000000   0.000144   0.007186
    31  C   -0.000000  -0.000000  -0.000000  -0.000148  -0.068333  -0.000119
    32  H    0.000000   0.000000   0.000000   0.000001   0.001199   0.000001
    33  H    0.000000  -0.000000   0.000000   0.000006   0.004034  -0.000001
    34  H   -0.000000   0.000000   0.000000   0.000004   0.006297   0.000154
              13         14         15         16         17         18
     1  C    0.001130   0.000345  -0.001012   0.001110  -0.051591  -0.006207
     2  C   -0.051805   0.004571  -0.006880   0.001570   0.001217  -0.000963
     3  C   -0.007276  -0.000034   0.005743   0.000723  -0.000179   0.000004
     4  C    0.000082   0.000013  -0.000401  -0.000159   0.000031   0.000005
     5  C    0.000026  -0.000001   0.000006  -0.000013   0.000011  -0.000335
     6  C   -0.000184   0.000007   0.000003  -0.000142  -0.007502   0.005306
     7  H    0.000941  -0.000133   0.003267   0.000382   0.000003  -0.000000
     8  H   -0.000003  -0.000000   0.000016   0.000000  -0.000000   0.000000
     9  H   -0.000000  -0.000000   0.000000  -0.000000  -0.000003   0.000013
    10  H    0.000003  -0.000000  -0.000000   0.000002   0.001263   0.002813
    11  N    0.000741  -0.000019   0.000008   0.000129   0.298581  -0.048140
    12  N    0.300369  -0.042941  -0.049096  -0.035274   0.000779   0.000007
    13  C    5.023662   0.384329   0.352181   0.379489   0.000081   0.000002
    14  H    0.384329   0.558579  -0.044076  -0.025005  -0.000009   0.000000
    15  H    0.352181  -0.044076   0.638472  -0.033752   0.000003  -0.000000
    16  H    0.379489  -0.025005  -0.033752   0.540611   0.000002   0.000001
    17  C    0.000081  -0.000009   0.000003   0.000002   5.025269   0.352861
    18  H    0.000002   0.000000  -0.000000   0.000001   0.352861   0.634733
    19  H   -0.000011  -0.000001   0.000000  -0.000003   0.384509  -0.044316
    20  H   -0.000004  -0.000002  -0.000000   0.000304   0.379147  -0.032110
    21  C   -0.058324   0.000199  -0.016090   0.006540  -0.000032   0.000001
    22  H   -0.017758  -0.001870   0.024232  -0.000021   0.000001  -0.000000
    23  H    0.007329  -0.000095  -0.000128  -0.000270   0.000003   0.000000
    24  C   -0.000032  -0.000000   0.000001   0.000004  -0.058785  -0.016548
    25  H    0.000001   0.000000  -0.000000   0.000000  -0.018636   0.024791
    26  H    0.000004  -0.000000   0.000000  -0.000001   0.007328  -0.000016
    27  C    0.001081   0.004768  -0.003378  -0.000109   0.000001  -0.000000
    28  H   -0.000072  -0.000028   0.000055  -0.000002  -0.000000  -0.000000
    29  H    0.001461  -0.000328   0.000895   0.000002  -0.000000   0.000000
    30  H   -0.001933  -0.000386   0.000843  -0.000072   0.000001   0.000000
    31  C    0.000001   0.000000  -0.000000  -0.000000   0.001921  -0.003770
    32  H   -0.000000   0.000000   0.000000   0.000000   0.000909   0.001018
    33  H   -0.000000   0.000000  -0.000000   0.000000  -0.000099   0.000046
    34  H    0.000001  -0.000001   0.000000  -0.000000  -0.001750   0.000947
              19         20         21         22         23         24
     1  C    0.004450   0.001595   0.001393  -0.001111   0.001516  -0.051686
     2  C    0.000397   0.000901  -0.050913  -0.008609   0.002329   0.001502
     3  C    0.000007  -0.000170  -0.006830   0.007210  -0.000433  -0.000129
     4  C   -0.000001  -0.000011   0.000355  -0.000404  -0.000110   0.000009
     5  C    0.000014  -0.000207   0.000007   0.000005  -0.000014   0.000321
     6  C   -0.000046   0.001230  -0.000137   0.000006  -0.000120  -0.006854
     7  H   -0.000000   0.000002   0.000271   0.003961   0.000255   0.000003
     8  H   -0.000000  -0.000000  -0.000005   0.000020  -0.000001   0.000000
     9  H   -0.000000   0.000001   0.000000   0.000000  -0.000000  -0.000005
    10  H   -0.000130   0.000480   0.000002  -0.000000   0.000002   0.000500
    11  N   -0.044118  -0.035184   0.000973   0.000008   0.000167   0.313372
    12  N   -0.000019   0.000108   0.313357  -0.050223  -0.041358   0.000969
    13  C   -0.000011  -0.000004  -0.058324  -0.017758   0.007329  -0.000032
    14  H   -0.000001  -0.000002   0.000199  -0.001870  -0.000095  -0.000000
    15  H    0.000000  -0.000000  -0.016090   0.024232  -0.000128   0.000001
    16  H   -0.000003   0.000304   0.006540  -0.000021  -0.000270   0.000004
    17  C    0.384509   0.379147  -0.000032   0.000001   0.000003  -0.058785
    18  H   -0.044316  -0.032110   0.000001  -0.000000   0.000000  -0.016548
    19  H    0.560263  -0.025488  -0.000000   0.000000  -0.000000   0.001010
    20  H   -0.025488   0.539016   0.000004   0.000000  -0.000000   0.006370
    21  C   -0.000000   0.000004   4.928491   0.351052   0.385665   0.000059
    22  H    0.000000   0.000000   0.351052   0.662445  -0.043154   0.000004
    23  H   -0.000000  -0.000000   0.385665  -0.043154   0.571879  -0.000007
    24  C    0.001010   0.006370   0.000059   0.000004  -0.000007   4.933249
    25  H   -0.001847   0.000117   0.000003  -0.000000   0.000003   0.353214
    26  H   -0.000134  -0.000282  -0.000006   0.000002   0.000421   0.386193
    27  C    0.000000  -0.000000   0.366723  -0.050407  -0.033020  -0.000007
    28  H    0.000000   0.000000  -0.028182   0.003395  -0.007517   0.000000
    29  H    0.000000   0.000000  -0.032640  -0.007803   0.004744   0.000000
    30  H   -0.000001  -0.000000  -0.037152   0.006657  -0.000764   0.000003
    31  C    0.004842  -0.000173  -0.000008  -0.000000  -0.000009   0.362953
    32  H   -0.000656   0.000012   0.000000   0.000000   0.000000  -0.032622
    33  H   -0.000014  -0.000001   0.000001  -0.000000  -0.000001  -0.028617
    34  H   -0.000329  -0.000070   0.000004   0.000000   0.000004  -0.038082
              25         26         27         28         29         30
     1  C   -0.008296   0.002430   0.000250  -0.000008  -0.000005  -0.000126
     2  C   -0.001085   0.001417   0.005296  -0.000191  -0.000012   0.000349
     3  C    0.000006  -0.000134   0.000005   0.000014  -0.000021   0.000058
     4  C    0.000005  -0.000013   0.000004  -0.000000  -0.000000  -0.000000
     5  C   -0.000353  -0.000138  -0.000000   0.000000   0.000000   0.000000
     6  C    0.006957  -0.000238   0.000004  -0.000000  -0.000000   0.000001
     7  H   -0.000000   0.000002  -0.000153   0.000007  -0.000001   0.000003
     8  H    0.000000  -0.000000  -0.000000   0.000000   0.000000   0.000000
     9  H    0.000017  -0.000001  -0.000000  -0.000000   0.000000   0.000000
    10  H    0.003760   0.000286  -0.000000   0.000000   0.000000  -0.000000
    11  N   -0.049195  -0.041008  -0.000121  -0.000001   0.000001   0.000144
    12  N    0.000006   0.000151  -0.067773   0.004153  -0.000081   0.007186
    13  C    0.000001   0.000004   0.001081  -0.000072   0.001461  -0.001933
    14  H    0.000000  -0.000000   0.004768  -0.000028  -0.000328  -0.000386
    15  H   -0.000000   0.000000  -0.003378   0.000055   0.000895   0.000843
    16  H    0.000000  -0.000001  -0.000109  -0.000002   0.000002  -0.000072
    17  C   -0.018636   0.007328   0.000001  -0.000000  -0.000000   0.000001
    18  H    0.024791  -0.000016  -0.000000  -0.000000   0.000000   0.000000
    19  H   -0.001847  -0.000134   0.000000   0.000000   0.000000  -0.000001
    20  H    0.000117  -0.000282  -0.000000   0.000000   0.000000  -0.000000
    21  C    0.000003  -0.000006   0.366723  -0.028182  -0.032640  -0.037152
    22  H   -0.000000   0.000002  -0.050407   0.003395  -0.007803   0.006657
    23  H    0.000003   0.000421  -0.033020  -0.007517   0.004744  -0.000764
    24  C    0.353214   0.386193  -0.000007   0.000000   0.000000   0.000003
    25  H    0.657844  -0.041668  -0.000000  -0.000000   0.000000   0.000000
    26  H   -0.041668   0.569434  -0.000007  -0.000001   0.000000   0.000003
    27  C   -0.000000  -0.000007   5.128057   0.371258   0.378848   0.370857
    28  H   -0.000000  -0.000001   0.371258   0.561483  -0.029309  -0.024721
    29  H    0.000000   0.000000   0.378848  -0.029309   0.563694  -0.029466
    30  H    0.000000   0.000003   0.370857  -0.024721  -0.029466   0.539565
    31  C   -0.051916  -0.033956  -0.000000   0.000000   0.000000  -0.000006
    32  H   -0.007549   0.004547   0.000000   0.000000  -0.000000  -0.000000
    33  H    0.003845  -0.008596   0.000000  -0.000000   0.000000  -0.000001
    34  H    0.006344   0.000465  -0.000008  -0.000000  -0.000000   0.000074
              31         32         33         34
     1  C    0.005525  -0.000049  -0.000223   0.000475
     2  C    0.000264  -0.000006  -0.000009  -0.000141
     3  C    0.000004  -0.000000  -0.000000   0.000001
     4  C   -0.000000   0.000000   0.000000   0.000000
     5  C    0.000004  -0.000000  -0.000000  -0.000000
     6  C    0.000000  -0.000014   0.000015   0.000060
     7  H   -0.000000   0.000000   0.000000  -0.000000
     8  H   -0.000000   0.000000  -0.000000   0.000000
     9  H   -0.000000   0.000000   0.000000   0.000000
    10  H   -0.000148   0.000001   0.000006   0.000004
    11  N   -0.068333   0.001199   0.004034   0.006297
    12  N   -0.000119   0.000001  -0.000001   0.000154
    13  C    0.000001  -0.000000  -0.000000   0.000001
    14  H    0.000000   0.000000   0.000000  -0.000001
    15  H   -0.000000   0.000000  -0.000000   0.000000
    16  H   -0.000000   0.000000   0.000000  -0.000000
    17  C    0.001921   0.000909  -0.000099  -0.001750
    18  H   -0.003770   0.001018   0.000046   0.000947
    19  H    0.004842  -0.000656  -0.000014  -0.000329
    20  H   -0.000173   0.000012  -0.000001  -0.000070
    21  C   -0.000008   0.000000   0.000001   0.000004
    22  H   -0.000000   0.000000  -0.000000   0.000000
    23  H   -0.000009   0.000000  -0.000001   0.000004
    24  C    0.362953  -0.032622  -0.028617  -0.038082
    25  H   -0.051916  -0.007549   0.003845   0.006344
    26  H   -0.033956   0.004547  -0.008596   0.000465
    27  C   -0.000000   0.000000   0.000000  -0.000008
    28  H    0.000000   0.000000  -0.000000  -0.000000
    29  H    0.000000  -0.000000   0.000000  -0.000000
    30  H   -0.000006  -0.000000  -0.000001   0.000074
    31  C    5.133071   0.376386   0.373628   0.372563
    32  H    0.376386   0.565987  -0.029368  -0.028354
    33  H    0.373628  -0.029368   0.558793  -0.024255
    34  H    0.372563  -0.028354  -0.024255   0.534921
 Mulliken charges:
               1
     1  C    0.204463
     2  C    0.206573
     3  C   -0.181689
     4  C   -0.151987
     5  C   -0.151654
     6  C   -0.181125
     7  H    0.145160
     8  H    0.138057
     9  H    0.138069
    10  H    0.144314
    11  N   -0.442516
    12  N   -0.442674
    13  C   -0.315509
    14  H    0.162120
    15  H    0.129090
    16  H    0.163956
    17  C   -0.315334
    18  H    0.129858
    19  H    0.161624
    20  H    0.164415
    21  C   -0.124782
    22  H    0.122362
    23  H    0.152688
    24  C   -0.126360
    25  H    0.123635
    26  H    0.153516
    27  C   -0.472167
    28  H    0.149665
    29  H    0.150023
    30  H    0.168882
    31  C   -0.472724
    32  H    0.148558
    33  H    0.150818
    34  H    0.170676
 Sum of Mulliken charges =  -0.00000
 Mulliken charges with hydrogens summed into heavy atoms:
               1
     1  C    0.204463
     2  C    0.206573
     3  C   -0.036529
     4  C   -0.013930
     5  C   -0.013585
     6  C   -0.036811
    11  N   -0.442516
    12  N   -0.442674
    13  C    0.139656
    17  C    0.140563
    21  C    0.150269
    24  C    0.150790
    27  C   -0.003598
    31  C   -0.002671
 Electronic spatial extent (au):  <R**2>=           3113.5118
 Charge=             -0.0000 electrons
 Dipole moment (field-independent basis, Debye):
    X=             -0.0063    Y=              0.9763    Z=             -0.1960  Tot=              0.9958
 Quadrupole moment (field-independent basis, Debye-Ang):
   XX=            -78.4634   YY=            -85.2089   ZZ=            -85.3222
   XY=             -0.0141   XZ=             -0.0118   YZ=              0.1329
 Traceless Quadrupole moment (field-independent basis, Debye-Ang):
   XX=              4.5348   YY=             -2.2107   ZZ=             -2.3241
   XY=             -0.0141   XZ=             -0.0118   YZ=              0.1329
 Octapole moment (field-independent basis, Debye-Ang**2):
  XXX=             -0.2888  YYY=             13.4922  ZZZ=              5.8913  XYY=              0.1131
  XXY=              2.8181  XXZ=              2.6552  XZZ=              0.1747  YZZ=            -10.3222
  YYZ=             -6.3251  XYZ=              0.0769
 Hexadecapole moment (field-independent basis, Debye-Ang**3):
 XXXX=          -2043.8126 YYYY=          -1631.4397 ZZZZ=           -465.0679 XXXY=             -0.3598
 XXXZ=              0.5966 YYYX=             -0.8568 YYYZ=            -30.5749 ZZZX=             -0.4369
 ZZZY=             12.1383 XXYY=           -618.0220 XXZZ=           -424.4767 YYZZ=           -366.1565
 XXYZ=             -8.4202 YYXZ=             -0.3803 ZZXY=             -0.4414
 N-N= 9.362889542555D+02 E-N=-3.213970748637D+03  KE= 5.737424633438D+02
 D1PCM: PCM CHGder 1st derivatives, ID1Alg=3 FixD1E=F DoIter=F DoCFld=F I1PDM=0.
 Calling FoFJK, ICntrl=      2127 FMM=F ISym2X=0 I1Cent= 0 IOpClX= 0 NMat=1 NMatS=1 NMatT=0.
 ***** Axes restored to original set *****
 -------------------------------------------------------------------
 Center     Atomic                   Forces (Hartrees/Bohr)
 Number     Number              X              Y              Z
 -------------------------------------------------------------------
      1        6          -0.013437463   -0.018027177   -0.000034306
      2        6           0.013305296   -0.018298387    0.000191648
      3        6           0.003963795    0.009590568   -0.000041796
      4        6           0.006977294    0.008182621   -0.000009895
      5        6          -0.006844912    0.008456965   -0.000014392
      6        6          -0.004038010    0.009373283   -0.000050485
      7        1          -0.009148238    0.000355050    0.000134485
      8        1          -0.004081746   -0.006933085   -0.000016786
      9        1           0.004098195   -0.006970367    0.000010112
     10        1           0.009007986    0.000218530    0.000145650
     11        7           0.010779285    0.024450859    0.000103898
     12        7          -0.010472322    0.023115861    0.000189505
     13        6          -0.015908259   -0.002550657   -0.016465549
     14        1           0.006022151   -0.016328863    0.004468770
     15        1           0.021601067    0.011391562    0.004371863
     16        1          -0.007243003    0.003370017    0.014055434
     17        6           0.015896748   -0.002927636   -0.015958758
     18        1          -0.021834802    0.010534910    0.003971175
     19        1          -0.005689877   -0.016701760    0.005083757
     20        1           0.006770610    0.003880436    0.014117539
     21        6          -0.009052628   -0.030956627    0.012724902
     22        1           0.018052970    0.015454190   -0.004644057
     23        1          -0.010477974    0.006183283   -0.011365136
     24        6           0.010738462   -0.030186664    0.011778495
     25        1          -0.018062159    0.015285531   -0.004135684
     26        1           0.010034102    0.006957379   -0.010968974
     27        6          -0.003102953    0.022990840    0.001305822
     28        1           0.005279660   -0.006350437   -0.016354996
     29        1           0.015497125   -0.007206795    0.007171107
     30        1          -0.011542061   -0.011718055    0.004311527
     31        6           0.001235793    0.021869366    0.001573346
     32        1          -0.016356751   -0.007665203    0.005124043
     33        1          -0.002788833   -0.007326770   -0.016451115
     34        1           0.010821453   -0.011512770    0.005678852
 -------------------------------------------------------------------
 Cartesian Forces:  Max     0.030956627 RMS     0.011546269

 GradGradGradGradGradGradGradGradGradGradGradGradGradGradGradGradGradGrad
 Berny optimization.
 FormGI is forming the generalized inverse of G from B-inverse, IUseBI=4.
 Internal  Forces:  Max     0.023452107 RMS     0.006950370
 Search for a local minimum.
 Step number   1 out of a maximum of  178
 All quantities printed in internal units (Hartrees-Bohrs-Radians)
 Mixed Optimization -- RFO/linear search
 Second derivative matrix not updated -- first step.
 ITU=  0
     Eigenvalues ---    0.00237   0.00237   0.00766   0.00766   0.00766
     Eigenvalues ---    0.00766   0.00766   0.00766   0.01710   0.01747
     Eigenvalues ---    0.02152   0.02153   0.02154   0.02155   0.02155
     Eigenvalues ---    0.02156   0.02156   0.03454   0.03454   0.04502
     Eigenvalues ---    0.04502   0.05496   0.05496   0.05720   0.05720
     Eigenvalues ---    0.05720   0.05720   0.07537   0.07537   0.07537
     Eigenvalues ---    0.07537   0.08860   0.08860   0.12453   0.12453
     Eigenvalues ---    0.16000   0.16000   0.16000   0.16000   0.16000
     Eigenvalues ---    0.16000   0.16000   0.16000   0.16000   0.16000
     Eigenvalues ---    0.16000   0.16000   0.16000   0.16000   0.16000
     Eigenvalues ---    0.16000   0.16276   0.16276   0.17820   0.17820
     Eigenvalues ---    0.21985   0.21985   0.22000   0.22494   0.24487
     Eigenvalues ---    0.25000   0.25000   0.28519   0.28519   0.33709
     Eigenvalues ---    0.33718   0.33718   0.33726   0.35740   0.35740
     Eigenvalues ---    0.35740   0.35740   0.35740   0.35740   0.37230
     Eigenvalues ---    0.37230   0.37230   0.37230   0.37230   0.37230
     Eigenvalues ---    0.37230   0.37230   0.37230   0.37230   0.37230
     Eigenvalues ---    0.37230   0.37230   0.37230   0.37230   0.37230
     Eigenvalues ---    0.42214   0.42390   0.46412   0.46453   0.46466
     Eigenvalues ---    0.46497
 RFO step:  Lambda=-2.84319446D-02 EMin= 2.36824190D-03
 Linear search not attempted -- first point.
 Iteration  1 RMS(Cart)=  0.08139588 RMS(Int)=  0.00210739
 Iteration  2 RMS(Cart)=  0.00448976 RMS(Int)=  0.00048464
 Iteration  3 RMS(Cart)=  0.00000957 RMS(Int)=  0.00048459
 Iteration  4 RMS(Cart)=  0.00000000 RMS(Int)=  0.00048459
 Variable       Old X    -DE/DX   Delta X   Delta X   Delta X     New X
                                 (Linear)    (Quad)   (Total)
    R1        2.63647   0.00996   0.00000   0.02121   0.02125   2.65772
    R2        2.63584   0.00863   0.00000   0.01800   0.01802   2.65386
    R3        2.77790  -0.00661   0.00000  -0.01713  -0.01713   2.76077
    R4        2.63562   0.00869   0.00000   0.01810   0.01812   2.65375
    R5        2.77790  -0.00701   0.00000  -0.01816  -0.01816   2.75973
    R6        2.63697  -0.00053   0.00000  -0.00159  -0.00161   2.63536
    R7        2.07809  -0.00914   0.00000  -0.02500  -0.02500   2.05309
    R8        2.63584  -0.00029   0.00000  -0.00158  -0.00162   2.63421
    R9        2.07809  -0.00804   0.00000  -0.02200  -0.02200   2.05610
   R10        2.63643  -0.00021   0.00000  -0.00091  -0.00093   2.63550
   R11        2.07825  -0.00809   0.00000  -0.02213  -0.02213   2.05612
   R12        2.07795  -0.00902   0.00000  -0.02465  -0.02465   2.05330
   R13        2.77790   0.00896   0.00000   0.02321   0.02321   2.80111
   R14        2.77790   0.00926   0.00000   0.02399   0.02399   2.80189
   R15        2.77790   0.00803   0.00000   0.02082   0.02082   2.79872
   R16        2.77790   0.00888   0.00000   0.02302   0.02302   2.80091
   R17        2.02201   0.01784   0.00000   0.04452   0.04452   2.06653
   R18        2.02201   0.02345   0.00000   0.05852   0.05852   2.08053
   R19        2.02201   0.01591   0.00000   0.03970   0.03970   2.06171
   R20        2.02201   0.02322   0.00000   0.05795   0.05795   2.07995
   R21        2.02201   0.01818   0.00000   0.04537   0.04537   2.06737
   R22        2.02201   0.01579   0.00000   0.03939   0.03939   2.06140
   R23        2.02201   0.02315   0.00000   0.05778   0.05778   2.07978
   R24        2.02201   0.01636   0.00000   0.04083   0.04083   2.06284
   R25        2.91018   0.00459   0.00000   0.01464   0.01464   2.92482
   R26        2.02201   0.02295   0.00000   0.05728   0.05728   2.07929
   R27        2.02201   0.01610   0.00000   0.04019   0.04019   2.06220
   R28        2.91018   0.00701   0.00000   0.02234   0.02234   2.93252
   R29        2.02201   0.01782   0.00000   0.04447   0.04447   2.06648
   R30        2.02201   0.01772   0.00000   0.04421   0.04421   2.06622
   R31        2.02201   0.01687   0.00000   0.04210   0.04210   2.06410
   R32        2.02201   0.01789   0.00000   0.04463   0.04463   2.06664
   R33        2.02201   0.01761   0.00000   0.04395   0.04395   2.06596
   R34        2.02201   0.01658   0.00000   0.04136   0.04136   2.06337
    A1        2.09437  -0.00476   0.00000  -0.01494  -0.01488   2.07949
    A2        2.09435  -0.00206   0.00000  -0.00848  -0.00851   2.08583
    A3        2.09447   0.00682   0.00000   0.02342   0.02339   2.11786
    A4        2.09455  -0.00467   0.00000  -0.01464  -0.01458   2.07997
    A5        2.09406  -0.00238   0.00000  -0.00961  -0.00965   2.08441
    A6        2.09458   0.00705   0.00000   0.02426   0.02422   2.11880
    A7        2.09429   0.00522   0.00000   0.02038   0.02038   2.11467
    A8        2.09462  -0.00225   0.00000  -0.00828  -0.00828   2.08634
    A9        2.09427  -0.00297   0.00000  -0.01210  -0.01210   2.08217
   A10        2.09429  -0.00048   0.00000  -0.00557  -0.00563   2.08866
   A11        2.09407   0.00029   0.00000   0.00306   0.00309   2.09716
   A12        2.09483   0.00019   0.00000   0.00251   0.00254   2.09737
   A13        2.09448  -0.00050   0.00000  -0.00557  -0.00564   2.08884
   A14        2.09459   0.00017   0.00000   0.00236   0.00239   2.09699
   A15        2.09411   0.00033   0.00000   0.00321   0.00324   2.09736
   A16        2.09440   0.00519   0.00000   0.02034   0.02034   2.11474
   A17        2.09453  -0.00236   0.00000  -0.00891  -0.00891   2.08562
   A18        2.09426  -0.00283   0.00000  -0.01143  -0.01143   2.08282
   A19        1.91063   0.00156   0.00000   0.03362   0.03121   1.94184
   A20        1.91063   0.00231   0.00000   0.03753   0.03524   1.94587
   A21        1.91063   0.00312   0.00000   0.03879   0.03665   1.94728
   A22        1.91063   0.00140   0.00000   0.03239   0.03002   1.94065
   A23        1.91063   0.00246   0.00000   0.03795   0.03575   1.94639
   A24        1.91063   0.00303   0.00000   0.03803   0.03594   1.94658
   A25        1.91063   0.00042   0.00000  -0.00029  -0.00056   1.91007
   A26        1.91063   0.01156   0.00000   0.06568   0.06520   1.97583
   A27        1.91063   0.00027   0.00000  -0.00037  -0.00068   1.90996
   A28        1.91063  -0.00493   0.00000  -0.02253  -0.02296   1.88767
   A29        1.91063  -0.00285   0.00000  -0.02382  -0.02389   1.88674
   A30        1.91063  -0.00447   0.00000  -0.01867  -0.01917   1.89147
   A31        1.91063   0.01126   0.00000   0.06380   0.06329   1.97392
   A32        1.91063   0.00073   0.00000   0.00145   0.00119   1.91182
   A33        1.91063   0.00078   0.00000   0.00254   0.00222   1.91285
   A34        1.91063  -0.00506   0.00000  -0.02359  -0.02402   1.88661
   A35        1.91063  -0.00462   0.00000  -0.01968  -0.02022   1.89042
   A36        1.91063  -0.00310   0.00000  -0.02453  -0.02457   1.88606
   A37        1.91063   0.00118   0.00000   0.02385   0.02354   1.93418
   A38        1.91063  -0.00498   0.00000  -0.03053  -0.03045   1.88019
   A39        1.91063   0.00768   0.00000   0.03696   0.03665   1.94729
   A40        1.91063  -0.00087   0.00000  -0.02349  -0.02343   1.88721
   A41        1.91063  -0.00315   0.00000  -0.00828  -0.00907   1.90157
   A42        1.91063   0.00013   0.00000   0.00149   0.00172   1.91236
   A43        1.91063   0.00083   0.00000   0.02023   0.01991   1.93054
   A44        1.91063  -0.00501   0.00000  -0.03003  -0.03004   1.88059
   A45        1.91063   0.00773   0.00000   0.03742   0.03713   1.94776
   A46        1.91063  -0.00104   0.00000  -0.02517  -0.02513   1.88550
   A47        1.91063  -0.00299   0.00000  -0.00758  -0.00826   1.90237
   A48        1.91063   0.00048   0.00000   0.00513   0.00537   1.91600
   A49        1.91063   0.00394   0.00000   0.01981   0.01957   1.93021
   A50        1.91063   0.00697   0.00000   0.03884   0.03853   1.94917
   A51        1.91063  -0.00036   0.00000  -0.00265  -0.00268   1.90795
   A52        1.91063  -0.00518   0.00000  -0.02606  -0.02653   1.88410
   A53        1.91063  -0.00251   0.00000  -0.01696  -0.01692   1.89372
   A54        1.91063  -0.00287   0.00000  -0.01298  -0.01308   1.89756
   A55        1.91063   0.00724   0.00000   0.04056   0.04019   1.95082
   A56        1.91063   0.00461   0.00000   0.02329   0.02299   1.93363
   A57        1.91063  -0.00014   0.00000  -0.00173  -0.00177   1.90887
   A58        1.91063  -0.00553   0.00000  -0.02731  -0.02790   1.88274
   A59        1.91063  -0.00310   0.00000  -0.01413  -0.01426   1.89638
   A60        1.91063  -0.00308   0.00000  -0.02068  -0.02063   1.89000
    D1        0.00056  -0.00002   0.00000  -0.00035  -0.00035   0.00022
    D2        3.14078   0.00002   0.00000   0.00033   0.00032   3.14110
    D3       -3.14112  -0.00004   0.00000  -0.00082  -0.00081   3.14125
    D4       -0.00091  -0.00000   0.00000  -0.00014  -0.00014  -0.00105
    D5        0.00026   0.00002   0.00000   0.00037   0.00037   0.00063
    D6        3.14140   0.00007   0.00000   0.00140   0.00140  -3.14038
    D7       -3.14124   0.00004   0.00000   0.00084   0.00085  -3.14039
    D8       -0.00010   0.00009   0.00000   0.00188   0.00188   0.00178
    D9        2.09476  -0.00293   0.00000  -0.04117  -0.04144   2.05332
   D10       -2.09403   0.00325   0.00000   0.04991   0.05020  -2.04383
   D11       -1.04692  -0.00296   0.00000  -0.04164  -0.04192  -1.08884
   D12        1.04748   0.00323   0.00000   0.04944   0.04972   1.09719
   D13       -0.00099   0.00000   0.00000   0.00004   0.00004  -0.00095
   D14        3.14093  -0.00005   0.00000  -0.00109  -0.00109   3.13984
   D15       -3.14120  -0.00003   0.00000  -0.00062  -0.00062   3.14137
   D16        0.00072  -0.00008   0.00000  -0.00174  -0.00174  -0.00103
   D17       -2.09446   0.00284   0.00000   0.03934   0.03961  -2.05485
   D18        2.09433  -0.00324   0.00000  -0.05032  -0.05059   2.04373
   D19        1.04575   0.00286   0.00000   0.03999   0.04027   1.08601
   D20       -1.04865  -0.00321   0.00000  -0.04967  -0.04994  -1.09859
   D21        0.00060   0.00001   0.00000   0.00024   0.00024   0.00084
   D22       -3.14153  -0.00001   0.00000  -0.00022  -0.00022   3.14144
   D23       -3.14132   0.00007   0.00000   0.00137   0.00137  -3.13996
   D24       -0.00026   0.00005   0.00000   0.00091   0.00091   0.00065
   D25        0.00023  -0.00001   0.00000  -0.00021  -0.00021   0.00002
   D26       -3.14158  -0.00003   0.00000  -0.00056  -0.00056   3.14104
   D27       -3.14083   0.00001   0.00000   0.00025   0.00025  -3.14058
   D28        0.00054  -0.00000   0.00000  -0.00010  -0.00010   0.00044
   D29       -0.00066  -0.00001   0.00000  -0.00010  -0.00010  -0.00075
   D30        3.14138  -0.00006   0.00000  -0.00113  -0.00113   3.14026
   D31        3.14116   0.00001   0.00000   0.00025   0.00025   3.14141
   D32        0.00001  -0.00004   0.00000  -0.00078  -0.00078  -0.00077
   D33        1.44371   0.00165   0.00000   0.00863   0.00895   1.45266
   D34       -2.74508   0.00280   0.00000   0.01970   0.02013  -2.72495
   D35       -0.65068  -0.00006   0.00000  -0.00789  -0.00781  -0.65849
   D36       -0.65068  -0.00404   0.00000  -0.08167  -0.08191  -0.73259
   D37        1.44371  -0.00289   0.00000  -0.07060  -0.07073   1.37299
   D38       -2.74508  -0.00576   0.00000  -0.09820  -0.09866  -2.84374
   D39       -1.32426   0.00002   0.00000   0.00013   0.00008  -1.32419
   D40        0.77013  -0.00381   0.00000  -0.03669  -0.03691   0.73322
   D41        2.86453  -0.00156   0.00000  -0.02588  -0.02665   2.83788
   D42        0.77013   0.00526   0.00000   0.08805   0.08869   0.85882
   D43        2.86453   0.00143   0.00000   0.05122   0.05170   2.91623
   D44       -1.32426   0.00368   0.00000   0.06203   0.06196  -1.26230
   D45        2.81015  -0.00325   0.00000  -0.02926  -0.02965   2.78050
   D46       -1.37864  -0.00196   0.00000  -0.01682  -0.01709  -1.39573
   D47        0.71575  -0.00018   0.00000   0.00031   0.00023   0.71598
   D48       -1.37864   0.00247   0.00000   0.06034   0.06045  -1.31819
   D49        0.71575   0.00377   0.00000   0.07278   0.07301   0.78876
   D50        2.81015   0.00554   0.00000   0.08991   0.09033   2.90047
   D51        1.27984   0.00039   0.00000   0.00931   0.00930   1.28915
   D52       -0.81455   0.00377   0.00000   0.04216   0.04243  -0.77212
   D53       -2.90895   0.00196   0.00000   0.03640   0.03720  -2.87174
   D54       -0.81455  -0.00469   0.00000  -0.07689  -0.07761  -0.89216
   D55       -2.90895  -0.00130   0.00000  -0.04404  -0.04448  -2.95343
   D56        1.27984  -0.00311   0.00000  -0.04980  -0.04970   1.23014
   D57        2.62025  -0.00142   0.00000   0.00206   0.00198   2.62222
   D58       -1.56854  -0.00108   0.00000   0.00606   0.00621  -1.56233
   D59        0.52585  -0.00054   0.00000   0.01232   0.01242   0.53827
   D60       -1.56854   0.00280   0.00000   0.04883   0.04866  -1.51989
   D61        0.52585   0.00315   0.00000   0.05283   0.05289   0.57874
   D62        2.62025   0.00368   0.00000   0.05910   0.05910   2.67935
   D63        0.52585  -0.00011   0.00000   0.01591   0.01575   0.54160
   D64        2.62025   0.00024   0.00000   0.01991   0.01998   2.64023
   D65       -1.56854   0.00077   0.00000   0.02617   0.02619  -1.54236
   D66        1.71839   0.00086   0.00000  -0.00900  -0.00920   1.70920
[...]
 0.00010535,-0.00000929,0.00001671,0.00002203,0.00000205,-0.00000299,-0
 .00000586,0.00001598,0.00000819,-0.00000400,0.00000220,-0.00000862,0.0
 0000075,0.00804747,-0.01947855,0.02422030,-0.00040915,0.00150206,0.000
 03480,0.00136670,-0.00486071,-0.00336969,0.00001902,-0.00004010,-0.000
 00567,-0.00000114,0.00000783,0.00000563,0.00000341,-0.00002853,-0.0000
 1140,0.04970831,-0.15631912,0.11879768,0.00008422,-0.00159348,0.001507
 80,-0.05543407,0.16991908,-0.00003356,0.00012838,-0.00001078,0.0000208
 0,-0.00014161,0.00005303,-0.00004798,-0.00000687,-0.00006190,-0.000024
 79,0.00003272,-0.00001431,0.00003776,0.00003096,0.00000720,-0.00001371
 ,-0.00005599,-0.00000146,0.00004991,-0.00001050,0.00001848,-0.00000293
 ,0.00000703,-0.00000842,-0.00000007,0.00000297,-0.00000051,-0.00000492
 ,0.00000680,0.00000437,0.00001069,-0.00002545,0.00004420,-0.00043428,0
 .00086083,0.00058715,0.00091472,0.00033814,-0.00125487,0.00141919,-0.0
 0096028,-0.00173359,-0.00006540,-0.00004683,-0.00004415,-0.00001365,-0
 .00025188,0.00007594,0.00001253,0.00000519,-0.00000786,-0.00000114,0.0
 0000024,0.00000087,-0.00000608,-0.00000418,0.00000039,-0.00000217,0.00
 000461,0.00000272,0.00426071,-0.00880341,0.01163610,0.00010276,0.00102
 805,0.00090106,0.00101354,-0.00289222,0.00001756,0.00004474,0.00001160
 ,-0.00003687,-0.00000373,-0.00000864,0.00000900,0.00000888,-0.00001314
 ,0.00000074,-0.05815708,0.12016492,-0.18397042,-0.00742418,0.01318910,
 -0.01571995,0.06118520,-0.13120346,0.19990503,0.00002584,-0.00019246,-
 0.00007121,0.00001523,0.00048718,-0.00012997,-0.00005305,0.00003730,0.
 00008164,-0.00000807,0.00000208,-0.00003987,-0.00002430,-0.00004729,0.
 00000334,0.00004235,0.00008712,0.00000267,-0.00000797,0.00000119,0.000
 04953,-0.00000189,-0.00001237,-0.00000294,0.00000538,-0.00000637,0.000
 00723,0.00001439,-0.00001414,-0.00000268,0.00005175,0.00005130,0.00001
 767,0.00179587,-0.00007437,-0.00035149,0.00020887,-0.00023100,0.000047
 31,-0.00009508,-0.00001994,-0.00005059,-0.00005278,0.00005140,-0.00003
 830,0.00000519,-0.00002881,-0.00005343,-0.00002591,0.00001146,0.000026
 06,0.00001389,-0.00000793,-0.00000162,0.00000893,0.00000550,-0.0000064
 7,-0.00000134,0.00000094,0.00000574,0.00573741,0.00316299,0.00443191,0
 .00079451,0.00132439,0.00109137,0.00034303,-0.00070458,0.00002477,-0.0
 0010513,-0.00002699,-0.00003931,0.00000639,0.00000708,0.00001765,-0.00
 032091,0.00016888,0.00008830,-0.22198924,-0.08082993,-0.09842717,-0.01
 791732,-0.00801094,-0.01162597,-0.00690292,-0.00287635,-0.00283300,0.2
 3841870,-0.00011710,-0.00001289,0.00002809,0.00022071,-0.00023221,0.00
 023345,-0.00023927,-0.00010733,0.00006187,0.00010479,0.00007913,-0.000
 04316,0.00002224,0.00000546,0.00000434,0.00005333,-0.00003330,-0.00001
 569,0.00015710,0.00016159,-0.00005329,-0.00000769,0.00000257,-0.000004
 44,0.00002003,-0.00000323,-0.00000708,0.00000357,-0.00000438,-0.000009
 51,-0.00000597,0.00003429,0.00009343,-0.00036726,0.00282329,0.00185387
 ,0.00005009,-0.00003429,-0.00021169,0.00002699,-0.00003978,-0.00005452
 ,-0.00000859,-0.00008924,0.00014797,-0.00000385,0.00005823,-0.00005411
 ,0.00002604,0.00003951,0.00000683,-0.00000219,-0.00000171,-0.00000146,
 0.00000081,-0.00000049,-0.00000600,-0.00001160,0.00000497,0.00001508,-
 0.02724667,-0.01271098,-0.01491522,0.00186403,-0.00563731,-0.00265575,
 -0.00022054,0.00115918,0.00066679,0.00024387,-0.00001828,-0.00018434,-
 0.00001498,0.00000112,0.00003115,0.00016349,-0.00011350,-0.00006296,-0
 .07878954,-0.08672727,-0.04379819,-0.00157738,-0.00169408,-0.00059391,
 0.01800708,0.00924322,0.00860691,0.08766899,0.09381921,-0.00018099,-0.
 00002144,0.00006248,0.00029808,-0.00035785,-0.00000170,-0.00010913,0.0
 0000336,-0.00001290,0.00002369,0.00007843,-0.00002812,0.00003385,0.000
 03848,-0.00000303,0.00003061,-0.00005118,0.00000399,0.00007689,0.00007
 921,-0.00001134,-0.00000214,0.00001273,-0.00000085,0.00000805,0.000004
 01,-0.00000227,-0.00000305,-0.00000173,-0.00000468,0.00000393,0.000111
 31,0.00004917,-0.00073351,0.00128272,0.00113298,-0.00003054,0.00004016
 ,-0.00043874,-0.00023486,-0.00003121,-0.00015651,0.00003806,0.00008750
 ,0.00016162,0.00002527,-0.00001818,-0.00001668,0.00003935,0.00001475,0
 .00000397,-0.00001255,0.00000446,-0.00000396,0.00000528,0.00000307,-0.
 00001215,-0.00000841,0.00000870,0.00001289,-0.01004029,-0.00520602,-0.
 00663240,0.00076881,-0.00277883,0.00020424,0.00067890,0.00027445,0.000
 52602,0.00016086,-0.00010801,-0.00013531,-0.00005234,0.00004688,0.0000
 3188,0.00014935,-0.00020355,0.00007271,-0.09776292,-0.04369790,-0.1054
 2664,0.01818766,0.00926111,0.01231729,-0.01915880,-0.00983668,-0.01040
 356,0.10778215,0.05089196,0.10871989,0.00078216,-0.00070794,-0.0007439
 2,0.00020173,0.00000348,0.00001204,-0.00001782,0.00012315,0.00003734,0
 .00002002,-0.00003688,-0.00005444,0.00002488,-0.00010324,0.00010813,-0
 .00024039,-0.00017442,-0.00009015,-0.00001857,-0.00002374,0.00001950,-
 0.00001340,-0.00000654,-0.00000936,-0.00000423,-0.00004181,0.00003163,
 -0.00001832,0.00001629,-0.00008691,-0.00111869,-0.00702852,-0.00063611
 ,-0.00012199,0.00023486,-0.00032570,-0.00002513,-0.00021228,0.00045236
 ,-0.00025326,0.00009588,0.00004960,0.00014109,0.00014756,-0.00013095,0
 .00013206,-0.00025535,-0.00021084,0.00108869,0.00064760,-0.00097833,-0
 .00003086,-0.00023123,-0.00036917,0.00023926,-0.00018513,0.00083932,-0
 .00015050,-0.00019796,0.00007923,0.00004758,0.00005131,-0.00004089,-0.
 00001907,0.00000390,0.00000858,0.00003530,0.00003680,-0.00003266,-0.08
 713454,-0.01791934,0.00594903,0.00495983,0.02627394,-0.00483152,-0.003
 11306,-0.02907658,0.00426204,0.00002954,-0.00001537,0.00002366,-0.0000
 0016,0.00002293,-0.00000769,-0.00005013,0.00001826,-0.00002296,0.00002
 155,-0.00002253,0.00002033,0.57917386,0.00155593,-0.00129625,-0.000899
 00,0.00046864,-0.00016707,-0.00013416,-0.00008275,-0.00013876,0.000066
 63,-0.00004618,0.00011564,-0.00003756,0.00019070,-0.00008343,0.0000257
 6,-0.00059716,-0.00038286,0.00001447,-0.00000067,-0.00000850,0.0000031
 0,-0.00000917,0.00000289,-0.00000079,-0.00002538,-0.00003622,0.0000120
 6,-0.00003793,0.00002357,-0.00004016,-0.00660431,-0.01968236,-0.006013
 83,0.00048937,0.00041024,0.00038131,-0.00009322,0.00023700,-0.00051981
 ,0.00016693,-0.00017233,-0.00004738,-0.00008006,-0.00015687,0.00011885
 ,-0.00012880,0.00023478,0.00022204,0.00073084,0.00004499,-0.00103557,0
 .00007130,-0.00015802,0.00004899,0.00012230,-0.00120832,-0.00055371,-0
 .00038643,0.00013184,0.00046558,-0.00009268,0.00002374,0.00012588,0.00
 007507,0.00000938,-0.00002027,-0.00001884,-0.00002026,0.00001584,-0.01
 897667,-0.18854899,0.02572419,-0.00371389,-0.01537998,0.00447492,-0.00
 165596,-0.00572800,0.00119002,-0.00002988,-0.00000438,-0.00000992,-0.0
 0000004,-0.00001624,0.00000734,0.00003345,-0.00001890,0.00000941,0.000
 00510,0.00002854,-0.00001296,-0.01269113,0.48553405,0.00261313,-0.0029
 5785,-0.00399544,0.00029275,-0.00095045,-0.00008041,-0.00004879,0.0002
 1405,0.00007589,-0.00005024,-0.00023756,-0.00004361,0.00031823,-0.0002
 4426,0.00021058,-0.00148798,-0.00147539,0.00010316,-0.00006560,-0.0000
 4715,0.00001259,-0.00003827,-0.00001512,-0.00000205,-0.00006415,-0.000
 19515,0.00003125,0.00001561,0.00005854,-0.00014657,-0.01071055,-0.0338
 7086,0.00153163,0.00013049,0.00067601,0.00031189,0.00004404,-0.0001756
 0,0.00001774,-0.00025955,0.00016006,0.00000786,0.00001076,0.00013006,-
 0.00001792,0.00019842,-0.00020422,0.00005108,-0.00101873,-0.00147801,0
 .00056465,0.00058032,-0.00022287,-0.00029172,-0.00008773,-0.00101086,-
 0.00045054,-0.00002297,-0.00025926,0.00012919,-0.00005209,0.00005959,-
 0.00007063,0.00000737,-0.00000410,0.00001801,-0.00000868,-0.00001158,-
 0.00001592,0.00731404,0.03097193,-0.08625525,0.00382927,0.01579691,-0.
 00170180,0.00165857,0.01895269,-0.00245448,-0.00001706,-0.00003682,-0.
 00002289,0.00002207,0.00004547,-0.00000027,-0.00005091,0.00001342,-0.0
 0001669,0.00001276,0.00000786,0.00008824,0.00440149,0.00650630,0.58113
 974,0.00013910,-0.00013954,-0.00026756,-0.00009185,0.00024327,0.000032
 04,0.00003470,-0.00001342,0.00001174,0.00002530,-0.00000553,-0.0000051
 5,0.00000161,-0.00006587,0.00000211,-0.00007496,0.00008273,-0.00003190
 ,0.00000230,0.00000668,0.00000057,0.00000154,-0.00000843,-0.00000195,0
 .00000113,-0.00001044,0.00000310,0.00004726,-0.00003118,0.00000342,-0.
 00001633,-0.00012571,0.00010188,-0.00004372,-0.00021181,-0.00011786,-0
 .00001216,0.00011761,0.00005343,0.00009299,-0.00008354,0.00000206,-0.0
 0004657,-0.00007817,-0.00001499,-0.00001546,0.00003494,0.00007270,-0.0
 0054502,-0.00050332,0.00121529,0.00002890,0.00010810,-0.00010097,0.000
 68004,0.00105287,-0.00025363,0.00024263,0.00033845,-0.00023295,0.00008
 550,0.00002974,-0.00002079,-0.00003497,-0.00001868,-0.00001627,0.00000
 376,-0.00000211,0.00000408,-0.00374437,-0.00044692,0.00194553,0.000932
 38,-0.00052782,-0.00032162,0.00147976,-0.00098725,0.00010384,0.0000318
 0,0.00002650,0.00004969,-0.00003335,-0.00002137,0.00000320,0.00001971,
 -0.00000285,-0.00000018,-0.00000490,-0.00001454,-0.00006425,-0.2415861
 0,-0.03345988,0.11190743,0.25899172,0.00011550,0.00005753,-0.00009904,
 -0.00002931,0.00026918,0.00002931,0.00004088,0.00006711,0.00000086,0.0
 0004653,-0.00002695,-0.00002919,-0.00004133,-0.00005588,0.00002270,0.0
 0000713,0.00018452,-0.00005326,-0.00000153,0.00000146,0.00000448,0.000
 00245,-0.00000652,0.00000095,0.00000366,-0.00000614,0.00000668,0.00003
 289,-0.00002762,0.00000510,0.00058202,0.00144303,-0.00006770,-0.000331
 29,-0.00015003,-0.00026889,0.00002581,-0.00013754,0.00016619,-0.000058
 05,0.00004661,-0.00001560,-0.00000666,0.00004975,-0.00005496,0.0000285
 5,-0.00002314,-0.00002679,-0.00030396,-0.00076524,-0.00015593,0.000158
 78,-0.00011172,0.00000733,0.00025653,-0.00068055,-0.00137629,0.0002102
 4,0.00024277,-0.00009918,0.00011712,-0.00002997,-0.00007784,-0.0000542
 1,0.00000474,0.00001022,0.00001260,0.00001823,-0.00000513,-0.03022957,
 -0.00319506,0.01903960,0.00057602,0.00169705,-0.00056941,-0.00047919,-
 0.00663445,0.00065651,-0.00000928,-0.00000553,-0.00001293,0.00000318,0
 .00001529,0.00000344,-0.00001858,0.00000846,-0.00001054,0.00000704,-0.
 00002555,0.00002307,-0.03252941,-0.05536800,0.02037595,0.03683882,0.05
 934799,-0.00026240,-0.00016870,0.00006480,0.00001892,0.00000144,-0.000
 04140,-0.00000076,-0.00006237,0.00001316,-0.00001519,0.00004922,0.0000
 0063,0.00001177,0.00002416,0.00000154,0.00008482,0.00003364,0.00000836
 ,0.00000849,0.00000520,-0.00000314,0.00000396,0.00000754,-0.00000064,0
 .00000186,0.00001862,0.00000170,-0.00001567,-0.00000119,0.00000374,-0.
 00013696,0.00028013,0.00037027,0.00016631,0.00005004,0.00010687,-0.000
 02531,0.00009893,-0.00008313,0.00005089,-0.00005169,-0.00000113,0.0000
 0735,-0.00004092,0.00002322,-0.00002961,0.00002694,0.00001937,0.000356
 50,-0.00070083,-0.00065929,-0.00008840,0.00013037,-0.00002939,0.000036
 81,-0.00161154,-0.00093510,-0.00018552,-0.00003975,0.00012106,-0.00005
 011,-0.00001012,0.00003039,0.00002675,0.00000895,0.00000402,-0.0000090
 6,-0.00000910,0.00000362,0.00380716,0.00067440,-0.00358206,-0.00006754
 ,-0.00000847,-0.00011063,-0.00033730,0.00135240,0.00103554,-0.00002462
 ,-0.00000705,-0.00001624,0.00000876,-0.00000353,-0.00000029,0.00001695
 ,-0.00000488,0.00000993,-0.00000562,0.00001462,-0.00000012,0.11164614,
 0.02098713,-0.11556009,-0.12571565,-0.02228243,0.12339071,0.00066992,-
 0.00017609,-0.00021751,-0.00000961,-0.00006815,0.00003182,0.00000304,0
 .00006259,-0.00000236,0.00001017,-0.00004244,0.00000076,0.00002898,-0.
 00003846,-0.00004715,-0.00019593,-0.00014086,-0.00001261,-0.00001286,-
 0.00000696,-0.00000200,-0.00000183,-0.00000392,0.00000393,-0.00000793,
 -0.00002562,0.00000720,0.00003314,0.00000259,0.00001437,-0.00018372,-0
 .00247700,0.00005162,-0.00005459,0.00005332,0.00009419,0.00004672,0.00
 000552,-0.00006276,0.00003970,-0.00000790,-0.00003847,-0.00003614,-0.0
 0002799,0.00004050,0.00001959,0.00006052,0.00009519,-0.00039049,-0.000
 31015,0.00079071,0.00012795,0.00003531,-0.00007719,0.00007849,0.000429
 06,-0.00029882,0.00012629,0.00013536,-0.00011653,0.00004613,-0.0000549
 0,-0.00006419,-0.00001659,0.00002311,0.00002592,-0.00001518,-0.0000090
 2,0.00000753,-0.00211122,-0.00186721,-0.00562669,0.00007317,0.00004261
 ,0.00015105,0.00010358,0.00021757,-0.00040061,-0.00008413,-0.00003443,
 -0.00005672,0.00002182,0.00002044,0.00001297,0.00000915,-0.00000039,0.
 00000393,0.00000200,0.00000793,0.00005057,-0.05027283,-0.00907343,-0.0
 1873333,0.00338615,0.01393942,0.02576629,0.04962541,0.00129702,-0.0004
 1753,-0.00138427,0.00013816,-0.00034159,0.00005719,-0.00002007,0.00013
 585,0.00000471,-0.00000532,-0.00014083,-0.00000855,0.00009248,-0.00007
 632,0.00006316,-0.00054889,-0.00048345,-0.00001314,-0.00003862,-0.0000
 2422,0.00000705,-0.00001936,-0.00001642,-0.00000031,-0.00002051,-0.000
 08271,0.00001534,0.00002167,0.00003139,-0.00003923,-0.00248988,-0.0070
 0312,0.00148845,-0.00010847,0.00027156,0.00005702,-0.00004770,-0.00004
 872,0.00007463,-0.00005366,0.00004510,-0.00000086,-0.00002365,0.000023
 45,-0.00003122,0.00006275,-0.00008882,0.00004152,-0.00096502,-0.000125
 48,0.00068308,0.00023488,-0.00001923,-0.00010799,0.00011484,0.00019075
 ,0.00005015,0.00007849,-0.00004834,-0.00008290,0.00009300,0.00001538,-
 0.00012600,-0.00003874,-0.00000026,0.00002575,-0.00000557,-0.00002157,
 -0.00000314,-0.00259588,-0.01141182,-0.03046079,0.00088289,0.00088688,
 0.00039356,-0.00026642,0.00144968,-0.00009602,-0.00006342,-0.00003684,
 -0.00001682,-0.00000131,0.00002015,0.00001192,0.00001193,0.00000888,0.
 00000845,0.00000551,0.00002448,0.00001170,-0.00895233,-0.10411640,-0.1
 0543252,0.00138970,0.00210609,0.00476279,0.01226329,0.11218541,0.00042
 735,0.00030917,0.00029632,-0.00003923,-0.00001276,0.00002241,-0.000003
 16,0.00003970,-0.00000670,0.00000276,-0.00003728,0.00000261,-0.0000132
 0,0.00001366,-0.00003542,-0.00005077,-0.00005948,-0.00006965,-0.000011
 86,-0.00000411,-0.00000134,-0.00000628,-0.00000799,0.00000368,0.000000
 59,-0.00001252,0.00000447,-0.00000976,0.00002210,0.00002332,0.00052825
 ,0.00093027,0.00089439,-0.00008845,-0.00000630,0.00004040,0.00004883,-
 0.00000576,-0.00003356,0.00004236,-0.00001222,-0.00002560,-0.00003894,
 -0.00002564,0.00001866,0.00001789,0.00006578,0.00006150,-0.00006639,0.
 00038004,-0.00013188,0.00001549,-0.00005337,0.00003992,-0.00018538,-0.
 00016416,0.00022273,-0.00008631,-0.00014042,0.00006062,0.00008353,-0.0
 0004048,-0.00006623,-0.00002737,0.00000975,0.00001541,-0.00000962,-0.0
 0000477,0.00001092,0.00058031,0.00407183,0.00508944,-0.00001540,-0.000
 68386,0.00026194,-0.00027794,-0.00036815,0.00070849,-0.00004882,-0.000
 01224,-0.00002469,0.00000286,0.00001077,0.00001194,0.00000557,-0.00000
 213,-0.00000281,0.00000928,-0.00000305,0.00002407,-0.01950011,-0.10749
 368,-0.25587430,-0.00172615,-0.00680383,-0.01425634,0.02057285,0.11691
 477,0.27615511,-0.00006529,-0.00005368,0.00021054,0.00004190,-0.000071
 32,-0.00003347,-0.00000558,0.00000997,-0.00000862,0.00001057,0.0000050
 8,0.00000049,-0.00001225,0.00000572,-0.00001561,-0.00000034,0.00001461
 ,0.00000942,0.00000386,0.00000085,-0.00000296,0.00000263,0.00000473,0.
 00000145,-0.00000133,0.00000582,-0.00000229,-0.00000519,-0.00000168,0.
 00000514,0.00059105,0.00043514,0.00051183,0.00015616,0.00010800,0.0001
 9407,-0.00002536,-0.00001145,-0.00034884,-0.00021663,-0.00012439,-0.00
 014118,-0.00006673,-0.00002419,0.00004417,-0.00016684,0.00005048,0.000
 01999,-0.00004091,0.00014624,0.00014326,-0.00001674,-0.00010330,0.0000
 3889,-0.00018597,0.00008420,-0.00014166,0.00002858,0.00009308,0.000005
 97,-0.00003916,-0.00001163,0.00005433,0.00003029,0.00000785,-0.0000040
 8,-0.00000471,-0.00000339,0.00000380,0.00558876,-0.00296266,0.00361629
 ,0.00112714,-0.00167421,0.00010193,0.00071714,0.00051710,0.00009400,-0
 .00001549,-0.00000747,-0.00002015,0.00000901,0.00000252,-0.00000295,-0
 .00000552,-0.00000426,0.00000646,-0.00000047,0.00000862,0.00001210,-0.
 20270852,0.08389485,-0.10064011,-0.01997854,0.01108720,-0.01505001,-0.
 00105836,-0.00042179,-0.00013279,0.21631286,-0.00038173,0.00014825,0.0
 0007686,0.00026123,-0.00026732,-0.00007739,-0.00003438,0.00004509,-0.0
 0005108,-0.00000786,0.00001170,-0.00000995,-0.00002144,0.00007597,0.00
 002065,0.00007856,0.00014907,0.00000668,0.00000314,-0.00000812,0.00001
 160,0.00000205,0.00000919,0.00000747,0.00000232,0.00001760,-0.00000021
 ,-0.00001369,0.00001778,0.00003117,0.00003453,0.00333065,-0.00034760,0
 .00004139,0.00027530,-0.00003940,-0.00030438,-0.00018487,0.00001677,-0
 .00018554,0.00013303,0.00000902,0.00007098,0.00013747,-0.00008932,-0.0
 0011306,-0.00023798,-0.00024401,0.00021076,-0.00013564,-0.00021211,-0.
 00017170,0.00009847,0.00011236,0.00011604,-0.00008872,0.00003378,0.000
 01982,-0.00000832,-0.00007171,-0.00008644,0.00003625,0.00008791,0.0000
 3961,0.00000605,-0.00001071,0.00002672,0.00002154,-0.00003573,0.026882
 31,-0.01521289,0.01853507,-0.00177359,-0.00666487,0.00100117,0.0000182
 2,0.00145093,-0.00028452,0.00000703,-0.00001360,-0.00004147,0.00002720
 ,0.00001388,-0.00001072,-0.00003047,0.00001858,-0.00000131,-0.00000197
 ,0.00000103,0.00004751,0.08273578,-0.09410452,0.05486078,-0.00351106,0
 .00169010,-0.00352396,-0.01293374,0.00710862,-0.00681366,-0.09100666,0
 .10213031,-0.00021083,-0.00052550,0.00014581,-0.00006714,0.00036874,-0
 .00001914,0.00000074,-0.00014748,0.00002890,-0.00000947,0.00009014,0.0
 0001638,0.00004580,-0.00004305,-0.00002100,-0.00001653,0.00006818,0.00
 002754,0.00001420,0.00001277,-0.00000478,0.00000290,-0.00000077,-0.000
 00631,-0.00000092,0.00000762,-0.00000313,0.00001122,-0.00001736,-0.000
 00970,0.00090248,-0.00002936,0.00143394,0.00000153,-0.00031002,-0.0001
 4367,-0.00001982,0.00018709,0.00013202,0.00006930,-0.00011338,0.000049
 34,-0.00001968,-0.00007733,-0.00001062,-0.00021092,-0.00013264,-0.0000
 5055,0.00023957,0.00013237,-0.00015434,-0.00003871,0.00005196,-0.00006
 598,0.00007061,-0.00000578,0.00002356,-0.00003987,0.00000409,0.0000318
 9,-0.00000765,0.00005468,-0.00000740,-0.00001561,-0.00003121,-0.000014
 51,0.00000200,-0.00001712,0.00000905,-0.00409547,0.00116370,-0.0039814
 4,0.00053091,0.00116579,0.00089035,-0.00020230,-0.00006950,-0.00020637
 ,0.00006924,0.00003651,0.00009427,-0.00004588,-0.00004178,-0.00000692,
 0.00004280,-0.00000562,0.00001440,-0.00001971,0.00001016,-0.00012048,-
 0.09986868,0.05641901,-0.11729293,0.01337976,-0.00834345,0.01007008,-0
 .02196449,0.01313252,-0.01343980,0.11147060,-0.06299396,0.12259156\\-0
 .00000143,0.00000183,0.00000026,0.00000364,0.,0.00000321,0.00000169,0.
 00000150,-0.00000066,0.00000276,-0.00000154,-0.00000162,-0.00000057,0.
 00000219,0.00000036,-0.00000298,-0.00000489,0.00000051,-0.00000136,0.0
 0000125,0.00000101,0.00000147,0.00000113,-0.00000019,-0.00000028,0.000
 00133,0.00000008,-0.00000026,-0.00000087,0.00000059,-0.00000234,-0.000
 00290,0.00000140,-0.00000569,0.00000004,-0.00000284,-0.00000243,-0.000
 00241,0.00000338,-0.00000146,0.00000142,0.00000040,0.00000090,0.000000
 76,0.00000035,0.00000053,-0.00000003,0.00000039,0.00000257,0.00000408,
 0.00000157,-0.00000028,0.00000119,-0.00000056,0.00000007,-0.00000102,0
 .00000032,-0.00000028,0.00000146,0.00000008,0.00000144,-0.00000328,-0.
 00000160,0.00000286,0.00000050,0.00000012,0.00000069,-0.00000105,-0.00
 000143,0.00000071,-0.00000054,0.00000002,-0.00000023,-0.00000022,-0.00
 000102,-0.00000184,-0.00000163,-0.00000101,0.00000205,-0.00000157,-0.0
 0000125,0.00000022,-0.00000112,-0.00000082,0.00000007,0.00000078,-0.00
 000107,0.00000013,0.00000017,0.00000003,0.00000086,0.00000168,-0.00000
 038,-0.00000068,0.00000049,0.00000030,0.00000017,0.00000080,0.00000006
 ,-0.00000075,0.00000047,0.00000002\\\@
 The archive entry for this job was punched.


 We find comfort among those who agree with us -- growth among those who don't.
 -- Frank A. Clark
 Job cpu time:       0 days  1 hours 24 minutes 19.3 seconds.
 Elapsed time:       0 days  0 hours 10 minutes 33.0 seconds.
 File lengths (MBytes):  RWF=    345 Int=      0 D2E=      0 Chk=     15 Scr=      1
 Normal termination of Gaussian 16 at Thu Nov 18 15:39:10 2021.
