 Entering Gaussian System, Link 0=/home/rong/g16/g16
 Input=/home/rong/g16/learning/naphthaleneNCCH3CH3.gjf
 Output=/home/rong/g16/learning/naphthaleneNCCH3CH3.log
 Initial command:
 /home/rong/g16/l1.exe "/tmp/Gau-273525.inp" -scrdir="/tmp/"
 Entering Link 1 = /home/rong/g16/l1.exe PID=    273527.
  
 Copyright (c) 1988-2019, Gaussian, Inc.  All Rights Reserved.
  
 This is part of the Gaussian(R) 16 program.  It is based on
 the Gaussian(R) 09 system (copyright 2009, Gaussian, Inc.),
 the Gaussian(R) 03 system (copyright 2003, Gaussian, Inc.),
 the Gaussian(R) 98 system (copyright 1998, Gaussian, Inc.),
 the Gaussian(R) 94 system (copyright 1995, Gaussian, Inc.),
 the Gaussian 92(TM) system (copyright 1992, Gaussian, Inc.),
 the Gaussian 90(TM) system (copyright 1990, Gaussian, Inc.),
 the Gaussian 88(TM) system (copyright 1988, Gaussian, Inc.),
 the Gaussian 86(TM) system (copyright 1986, Carnegie Mellon
 University), and the Gaussian 82(TM) system (copyright 1983,
 Carnegie Mellon University). Gaussian is a federally registered
 trademark of Gaussian, Inc.
  
 This software contains proprietary and confidential information,
 including trade secrets, belonging to Gaussian, Inc.
  
 This software is provided under written license and may be
 used, copied, transmitted, or stored only in accord with that
 written license.
  
 The following legend is applicable only to US Government
 contracts under FAR:
  
                    RESTRICTED RIGHTS LEGEND
  
 Use, reproduction and disclosure by the US Government is
 subject to restrictions as set forth in subparagraphs (a)
 and (c) of the Commercial Computer Software - Restricted
 Rights clause in FAR 52.227-19.
  
 Gaussian, Inc.
 340 Quinnipiac St., Bldg. 40, Wallingford CT 06492
  
  
 ---------------------------------------------------------------
 Warning -- This program may not be used in any manner that
 competes with the business of Gaussian, Inc. or will provide
 assistance to any competitor of Gaussian, Inc.  The licensee
 of this program is prohibited from giving any competitor of
 Gaussian, Inc. access to this program.  By using this program,
 the user acknowledges that Gaussian, Inc. is engaged in the
 business of creating and licensing software in the field of
 computational chemistry and represents and warrants to the
 licensee that it is not a competitor of Gaussian, Inc. and that
 it will not use this program in any manner prohibited above.
 ---------------------------------------------------------------
  

 Cite this work as:
 Gaussian 16, Revision C.01,
 M. J. Frisch, G. W. Trucks, H. B. Schlegel, G. E. Scuseria, 
 M. A. Robb, J. R. Cheeseman, G. Scalmani, V. Barone, 
 G. A. Petersson, H. Nakatsuji, X. Li, M. Caricato, A. V. Marenich, 
 J. Bloino, B. G. Janesko, R. Gomperts, B. Mennucci, H. P. Hratchian, 
 J. V. Ortiz, A. F. Izmaylov, J. L. Sonnenberg, D. Williams-Young, 
 F. Ding, F. Lipparini, F. Egidi, J. Goings, B. Peng, A. Petrone, 
 T. Henderson, D. Ranasinghe, V. G. Zakrzewski, J. Gao, N. Rega, 
 G. Zheng, W. Liang, M. Hada, M. Ehara, K. Toyota, R. Fukuda, 
 J. Hasegawa, M. Ishida, T. Nakajima, Y. Honda, O. Kitao, H. Nakai, 
 T. Vreven, K. Throssell, J. A. Montgomery, Jr., J. E. Peralta, 
 F. Ogliaro, M. J. Bearpark, J. J. Heyd, E. N. Brothers, K. N. Kudin, 
 V. N. Staroverov, T. A. Keith, R. Kobayashi, J. Normand, 
 K. Raghavachari, A. P. Rendell, J. C. Burant, S. S. Iyengar, 
 J. Tomasi, M. Cossi, J. M. Millam, M. Klene, C. Adamo, R. Cammi, 
 J. W. Ochterski, R. L. Martin, K. Morokuma, O. Farkas, 
 J. B. Foresman, and D. J. Fox, Gaussian, Inc., Wallingford CT, 2019.
 
 ******************************************
 Gaussian 16:  ES64L-G16RevC.01  3-Jul-2019
                25-Oct-2021 
 ******************************************
 %mem=30GB
 %chk=/home/rong/g16/learning/naphthaleneNCCH3CH3.chk
 %nprocshared=16
 Will use up to   16 processors via shared memory.
 ----------------------------------------------------
 # opt freq b3lyp/6-31g(d) scrf=(smd,solvent=toluene)
 ----------------------------------------------------
 1/18=20,19=15,26=3,38=1/1,3;
 2/9=110,12=2,17=6,18=5,40=1/2;
 3/5=1,6=6,7=1,11=2,25=1,30=1,70=32201,71=1,72=13,74=-5/1,2,3;
 4//1;
 5/5=2,38=5,53=13/2;
 6/7=2,8=2,9=2,10=2,28=1/1;
 7//1,2,3,16;
 1/18=20,19=15,26=3/3(2);
 2/9=110/2;
 99//99;
 2/9=110/2;
 3/5=1,6=6,7=1,11=2,25=1,30=1,70=32205,71=1,72=13,74=-5/1,2,3;
 4/5=5,16=3,69=1/1;
 5/5=2,38=5,53=13/2;
 7//1,2,3,16;
 1/18=20,19=15,26=3/3(-5);
 2/9=110/2;
 6/7=2,8=2,9=2,10=2,19=2,28=1/1;
 99/9=1/99;
 -----------------
 naphthaleneNCHCH3
 -----------------
 Symbolic Z-matrix:
 Charge =  0 Multiplicity = 1
 C                     0.55438   2.42231   0.28811 
 C                    -0.15088   1.22121   0.14828 
 C                     0.54      0.00706   0.20427 
 C                     1.92389   0.00582   0.39925 
 C                     2.61326   1.21993   0.53676 
 C                     1.94396   2.40097   0.48242 
 H                     0.03398   3.3563    0.24678 
 C                    -0.14184  -1.20578   0.06718 
 C                     2.6221   -1.20961   0.45747 
 H                     3.67288   1.21567   0.68538 
 H                     2.47987   3.32088   0.58851 
 C                     1.9616   -2.3894    0.32497 
 C                     0.57236  -2.40832   0.12783 
 H                     3.68162  -1.2074    0.60735 
 H                     2.50432  -3.3104    0.37113 
 H                     0.05919  -3.34153   0.02399 
 N                    -1.60648   1.23685  -0.05572 
 N                    -1.59731  -1.21905  -0.13899 
 C                    -1.98823   2.46758  -0.76396 
 H                    -2.83475   2.23156  -1.37437 
 C                    -1.96886  -2.40071  -0.93073 
 H                    -1.15748  -2.60166  -1.59869 
 C                    -2.34187   3.73627   0.03364 
 H                    -1.45656   4.31548   0.19265 
 H                    -3.0534    4.31641  -0.51563 
 H                    -2.76127   3.4584    0.97819 
 C                    -2.31419  -3.72404  -0.22322 
 H                    -3.01999  -4.27008  -0.81303 
 H                    -1.42497  -4.306    -0.10206 
 H                    -2.73757  -3.51526   0.73716 
 C                    -2.28439   1.19129   1.24784 
 H                    -3.34386   1.20181   1.09921 
 H                    -2.00537   0.29648   1.76366 
 H                    -1.99734   2.04234   1.82941 
 C                    -2.27611  -1.26927   1.16397 
 H                    -2.00553  -0.40946   1.74033 
 H                    -3.33556  -1.27929   1.01422 
 H                    -1.98126  -2.15568   1.68575 
 H                    -2.81626  -2.12943  -1.52505 
 H                    -1.17959   2.72009  -1.4176 
 

 GradGradGradGradGradGradGradGradGradGradGradGradGradGradGradGradGradGrad
 Berny optimization.
 Initialization pass.
                           ----------------------------
                           !    Initial Parameters    !
                           ! (Angstroms and Degrees)  !
 --------------------------                            --------------------------
 ! Name  Definition              Value          Derivative Info.                !
 --------------------------------------------------------------------------------
 ! R1    R(1,2)                  1.3999         estimate D2E/DX2                !
 ! R2    R(1,6)                  1.4033         estimate D2E/DX2                !
 ! R3    R(1,7)                  1.07           estimate D2E/DX2                !
 ! R4    R(2,3)                  1.3981         estimate D2E/DX2                !
 ! R5    R(2,17)                 1.4699         estimate D2E/DX2                !
 ! R6    R(3,4)                  1.3976         estimate D2E/DX2                !
 ! R7    R(3,8)                  1.3981         estimate D2E/DX2                !
 ! R8    R(4,5)                  1.4029         estimate D2E/DX2                !
 ! R9    R(4,9)                  1.4029         estimate D2E/DX2                !
 ! R10   R(5,6)                  1.3586         estimate D2E/DX2                !
 ! R11   R(5,10)                 1.07           estimate D2E/DX2                !
 ! R12   R(6,11)                 1.0699         estimate D2E/DX2                !
 ! R13   R(8,13)                 1.4            estimate D2E/DX2                !
 ! R14   R(8,18)                 1.4701         estimate D2E/DX2                !
 ! R15   R(9,12)                 1.3586         estimate D2E/DX2                !
 ! R16   R(9,14)                 1.0701         estimate D2E/DX2                !
 ! R17   R(12,13)                1.4033         estimate D2E/DX2                !
 ! R18   R(12,15)                1.07           estimate D2E/DX2                !
 ! R19   R(13,16)                1.07           estimate D2E/DX2                !
 ! R20   R(17,19)                1.4704         estimate D2E/DX2                !
 ! R21   R(17,31)                1.47           estimate D2E/DX2                !
 ! R22   R(18,21)                1.4701         estimate D2E/DX2                !
 ! R23   R(18,35)                1.47           estimate D2E/DX2                !
 ! R24   R(19,20)                1.07           estimate D2E/DX2                !
 ! R25   R(19,23)                1.5397         estimate D2E/DX2                !
 ! R26   R(19,40)                1.07           estimate D2E/DX2                !
 ! R27   R(21,22)                1.07           estimate D2E/DX2                !
 ! R28   R(21,27)                1.5398         estimate D2E/DX2                !
 ! R29   R(21,39)                1.07           estimate D2E/DX2                !
 ! R30   R(23,24)                1.0698         estimate D2E/DX2                !
 ! R31   R(23,25)                1.0698         estimate D2E/DX2                !
 ! R32   R(23,26)                1.0702         estimate D2E/DX2                !
 ! R33   R(27,28)                1.0697         estimate D2E/DX2                !
 ! R34   R(27,29)                1.0696         estimate D2E/DX2                !
 ! R35   R(27,30)                1.0701         estimate D2E/DX2                !
 ! R36   R(31,32)                1.0699         estimate D2E/DX2                !
 ! R37   R(31,33)                1.0699         estimate D2E/DX2                !
 ! R38   R(31,34)                1.07           estimate D2E/DX2                !
 ! R39   R(33,36)                0.7063         estimate D2E/DX2                !
 ! R40   R(35,36)                1.0699         estimate D2E/DX2                !
 ! R41   R(35,37)                1.07           estimate D2E/DX2                !
 ! R42   R(35,38)                1.07           estimate D2E/DX2                !
 ! A1    A(2,1,6)              119.9788         estimate D2E/DX2                !
 ! A2    A(2,1,7)              120.0048         estimate D2E/DX2                !
 ! A3    A(6,1,7)              120.0163         estimate D2E/DX2                !
 ! A4    A(1,2,3)              119.4839         estimate D2E/DX2                !
 ! A5    A(1,2,17)             120.2406         estimate D2E/DX2                !
 ! A6    A(3,2,17)             120.2754         estimate D2E/DX2                !
 ! A7    A(2,3,4)              119.7153         estimate D2E/DX2                !
 ! A8    A(2,3,8)              120.5602         estimate D2E/DX2                !
 ! A9    A(4,3,8)              119.7245         estimate D2E/DX2                !
 ! A10   A(3,4,5)              119.9655         estimate D2E/DX2                !
 ! A11   A(3,4,9)              119.9591         estimate D2E/DX2                !
 ! A12   A(5,4,9)              120.0754         estimate D2E/DX2                !
 ! A13   A(4,5,6)              120.4191         estimate D2E/DX2                !
 ! A14   A(4,5,10)             119.7869         estimate D2E/DX2                !
 ! A15   A(6,5,10)             119.794          estimate D2E/DX2                !
 ! A16   A(1,6,5)              120.4373         estimate D2E/DX2                !
 ! A17   A(1,6,11)             119.7796         estimate D2E/DX2                !
 ! A18   A(5,6,11)             119.7831         estimate D2E/DX2                !
 ! A19   A(3,8,13)             119.4799         estimate D2E/DX2                !
 ! A20   A(3,8,18)             120.2939         estimate D2E/DX2                !
 ! A21   A(13,8,18)            120.2262         estimate D2E/DX2                !
 ! A22   A(4,9,12)             120.4204         estimate D2E/DX2                !
 ! A23   A(4,9,14)             119.789          estimate D2E/DX2                !
 ! A24   A(12,9,14)            119.7906         estimate D2E/DX2                !
 ! A25   A(9,12,13)            120.4452         estimate D2E/DX2                !
 ! A26   A(9,12,15)            119.78           estimate D2E/DX2                !
 ! A27   A(13,12,15)           119.7748         estimate D2E/DX2                !
 ! A28   A(8,13,12)            119.9708         estimate D2E/DX2                !
 ! A29   A(8,13,16)            120.0183         estimate D2E/DX2                !
 ! A30   A(12,13,16)           120.0109         estimate D2E/DX2                !
 ! A31   A(2,17,19)            109.4425         estimate D2E/DX2                !
 ! A32   A(2,17,31)            109.4675         estimate D2E/DX2                !
 ! A33   A(19,17,31)           109.4722         estimate D2E/DX2                !
 ! A34   A(8,18,21)            109.4521         estimate D2E/DX2                !
 ! A35   A(8,18,35)            109.4618         estimate D2E/DX2                !
 ! A36   A(21,18,35)           109.4625         estimate D2E/DX2                !
 ! A37   A(17,19,20)           107.191          estimate D2E/DX2                !
 ! A38   A(17,19,23)           119.9857         estimate D2E/DX2                !
 ! A39   A(17,19,40)           107.191          estimate D2E/DX2                !
 ! A40   A(20,19,23)           107.191          estimate D2E/DX2                !
 ! A41   A(20,19,40)           107.5454         estimate D2E/DX2                !
 ! A42   A(23,19,40)           107.191          estimate D2E/DX2                !
 ! A43   A(18,21,22)           107.1876         estimate D2E/DX2                !
 ! A44   A(18,21,27)           120.0003         estimate D2E/DX2                !
 ! A45   A(18,21,39)           107.1876         estimate D2E/DX2                !
 ! A46   A(22,21,27)           107.1876         estimate D2E/DX2                !
 ! A47   A(22,21,39)           107.543          estimate D2E/DX2                !
 ! A48   A(27,21,39)           107.1876         estimate D2E/DX2                !
 ! A49   A(19,23,24)           109.4526         estimate D2E/DX2                !
 ! A50   A(19,23,25)           109.4881         estimate D2E/DX2                !
 ! A51   A(19,23,26)           109.4669         estimate D2E/DX2                !
 ! A52   A(24,23,25)           109.4573         estimate D2E/DX2                !
 ! A53   A(24,23,26)           109.4934         estimate D2E/DX2                !
 ! A54   A(25,23,26)           109.4689         estimate D2E/DX2                !
 ! A55   A(21,27,28)           109.4709         estimate D2E/DX2                !
 ! A56   A(21,27,29)           109.4631         estimate D2E/DX2                !
 ! A57   A(21,27,30)           109.4765         estimate D2E/DX2                !
 ! A58   A(28,27,29)           109.4666         estimate D2E/DX2                !
 ! A59   A(28,27,30)           109.4744         estimate D2E/DX2                !
 ! A60   A(29,27,30)           109.476          estimate D2E/DX2                !
 ! A61   A(17,31,32)           109.4615         estimate D2E/DX2                !
 ! A62   A(17,31,33)           109.4635         estimate D2E/DX2                !
 ! A63   A(17,31,34)           109.4881         estimate D2E/DX2                !
 ! A64   A(32,31,33)           109.4787         estimate D2E/DX2                !
 ! A65   A(32,31,34)           109.471          estimate D2E/DX2                !
 ! A66   A(33,31,34)           109.4646         estimate D2E/DX2                !
 ! A67   A(31,33,36)           145.0784         estimate D2E/DX2                !
 ! A68   A(18,35,36)           109.4662         estimate D2E/DX2                !
 ! A69   A(18,35,37)           109.4793         estimate D2E/DX2                !
 ! A70   A(18,35,38)           109.4678         estimate D2E/DX2                !
 ! A71   A(36,35,37)           109.4701         estimate D2E/DX2                !
 ! A72   A(36,35,38)           109.4734         estimate D2E/DX2                !
 ! A73   A(37,35,38)           109.4704         estimate D2E/DX2                !
 ! A74   A(33,36,35)           145.1906         estimate D2E/DX2                !
 ! D1    D(6,1,2,3)              0.0145         estimate D2E/DX2                !
 ! D2    D(6,1,2,17)          -179.9895         estimate D2E/DX2                !
 ! D3    D(7,1,2,3)           -179.9888         estimate D2E/DX2                !
 ! D4    D(7,1,2,17)             0.0072         estimate D2E/DX2                !
 ! D5    D(2,1,6,5)             -0.0274         estimate D2E/DX2                !
 ! D6    D(2,1,6,11)           179.9753         estimate D2E/DX2                !
 ! D7    D(7,1,6,5)            179.9758         estimate D2E/DX2                !
 ! D8    D(7,1,6,11)            -0.0214         estimate D2E/DX2                !
 ! D9    D(1,2,3,4)              0.0227         estimate D2E/DX2                !
 ! D10   D(1,2,3,8)           -179.9927         estimate D2E/DX2                !
 ! D11   D(17,2,3,4)          -179.9733         estimate D2E/DX2                !
 ! D12   D(17,2,3,8)             0.0113         estimate D2E/DX2                !
 ! D13   D(1,2,17,19)           29.8051         estimate D2E/DX2                !
 ! D14   D(1,2,17,31)          -90.1763         estimate D2E/DX2                !
 ! D15   D(3,2,17,19)         -150.199          estimate D2E/DX2                !
 ! D16   D(3,2,17,31)           89.8197         estimate D2E/DX2                !
 ! D17   D(2,3,4,5)             -0.0475         estimate D2E/DX2                !
 ! D18   D(2,3,4,9)            179.9419         estimate D2E/DX2                !
 ! D19   D(8,3,4,5)            179.9678         estimate D2E/DX2                !
 ! D20   D(8,3,4,9)             -0.0428         estimate D2E/DX2                !
 ! D21   D(2,3,8,13)          -179.9541         estimate D2E/DX2                !
 ! D22   D(2,3,8,18)             0.0426         estimate D2E/DX2                !
 ! D23   D(4,3,8,13)             0.0304         estimate D2E/DX2                !
 ! D24   D(4,3,8,18)          -179.9728         estimate D2E/DX2                !
 ! D25   D(3,4,5,6)              0.035          estimate D2E/DX2                !
 ! D26   D(3,4,5,10)          -179.9661         estimate D2E/DX2                !
 ! D27   D(9,4,5,6)           -179.9543         estimate D2E/DX2                !
 ! D28   D(9,4,5,10)             0.0446         estimate D2E/DX2                !
 ! D29   D(3,4,9,12)             0.0206         estimate D2E/DX2                !
 ! D30   D(3,4,9,14)          -179.97           estimate D2E/DX2                !
 ! D31   D(5,4,9,12)          -179.99           estimate D2E/DX2                !
 ! D32   D(5,4,9,14)             0.0193         estimate D2E/DX2                !
 ! D33   D(4,5,6,1)              0.0026         estimate D2E/DX2                !
 ! D34   D(4,5,6,11)           179.9999         estimate D2E/DX2                !
 ! D35   D(10,5,6,1)          -179.9963         estimate D2E/DX2                !
 ! D36   D(10,5,6,11)            0.0009         estimate D2E/DX2                !
 ! D37   D(3,8,13,12)            0.0038         estimate D2E/DX2                !
 ! D38   D(3,8,13,16)          179.9984         estimate D2E/DX2                !
 ! D39   D(18,8,13,12)        -179.9929         estimate D2E/DX2                !
 ! D40   D(18,8,13,16)           0.0016         estimate D2E/DX2                !
 ! D41   D(3,8,18,21)          150.0388         estimate D2E/DX2                !
 ! D42   D(3,8,18,35)          -89.9894         estimate D2E/DX2                !
 ! D43   D(13,8,18,21)         -29.9645         estimate D2E/DX2                !
 ! D44   D(13,8,18,35)          90.0073         estimate D2E/DX2                !
 ! D45   D(4,9,12,13)            0.014          estimate D2E/DX2                !
 ! D46   D(4,9,12,15)         -179.9935         estimate D2E/DX2                !
 ! D47   D(14,9,12,13)        -179.9953         estimate D2E/DX2                !
 ! D48   D(14,9,12,15)          -0.0028         estimate D2E/DX2                !
 ! D49   D(9,12,13,8)           -0.0263         estimate D2E/DX2                !
 ! D50   D(9,12,13,16)         179.9791         estimate D2E/DX2                !
 ! D51   D(15,12,13,8)         179.9811         estimate D2E/DX2                !
 ! D52   D(15,12,13,16)         -0.0134         estimate D2E/DX2                !
 ! D53   D(2,17,19,20)         147.7513         estimate D2E/DX2                !
 ! D54   D(2,17,19,23)         -89.8568         estimate D2E/DX2                !
 ! D55   D(2,17,19,40)          32.5352         estimate D2E/DX2                !
 ! D56   D(31,17,19,20)        -92.2702         estimate D2E/DX2                !
 ! D57   D(31,17,19,23)         30.1218         estimate D2E/DX2                !
 ! D58   D(31,17,19,40)        152.5137         estimate D2E/DX2                !
 ! D59   D(2,17,31,32)        -179.9506         estimate D2E/DX2                !
 ! D60   D(2,17,31,33)         -59.9521         estimate D2E/DX2                !
 ! D61   D(2,17,31,34)          60.0453         estimate D2E/DX2                !
 ! D62   D(19,17,31,32)         60.0862         estimate D2E/DX2                !
 ! D63   D(19,17,31,33)       -179.9153         estimate D2E/DX2                !
 ! D64   D(19,17,31,34)        -59.9179         estimate D2E/DX2                !
 ! D65   D(8,18,21,22)         -32.4759         estimate D2E/DX2                !
 ! D66   D(8,18,21,27)          89.9192         estimate D2E/DX2                !
 ! D67   D(8,18,21,39)        -147.6858         estimate D2E/DX2                !
 ! D68   D(35,18,21,22)       -152.4473         estimate D2E/DX2                !
 ! D69   D(35,18,21,27)        -30.0522         estimate D2E/DX2                !
 ! D70   D(35,18,21,39)         92.3428         estimate D2E/DX2                !
 ! D71   D(8,18,35,36)          60.019          estimate D2E/DX2                !
 ! D72   D(8,18,35,37)        -179.9804         estimate D2E/DX2                !
 ! D73   D(8,18,35,38)         -59.9785         estimate D2E/DX2                !
 ! D74   D(21,18,35,36)        179.9845         estimate D2E/DX2                !
 ! D75   D(21,18,35,37)        -60.0149         estimate D2E/DX2                !
 ! D76   D(21,18,35,38)         59.987          estimate D2E/DX2                !
 ! D77   D(17,19,23,24)         90.0191         estimate D2E/DX2                !
 ! D78   D(17,19,23,25)       -149.999          estimate D2E/DX2                !
 ! D79   D(17,19,23,26)        -29.9941         estimate D2E/DX2                !
 ! D80   D(20,19,23,24)       -147.5889         estimate D2E/DX2                !
 ! D81   D(20,19,23,25)        -27.607          estimate D2E/DX2                !
 ! D82   D(20,19,23,26)         92.3979         estimate D2E/DX2                !
 ! D83   D(40,19,23,24)        -32.3729         estimate D2E/DX2                !
 ! D84   D(40,19,23,25)         87.609          estimate D2E/DX2                !
 ! D85   D(40,19,23,26)       -152.386          estimate D2E/DX2                !
 ! D86   D(18,21,27,28)        150.0377         estimate D2E/DX2                !
 ! D87   D(18,21,27,29)        -89.9732         estimate D2E/DX2                !
 ! D88   D(18,21,27,30)         30.0308         estimate D2E/DX2                !
 ! D89   D(22,21,27,28)        -87.5673         estimate D2E/DX2                !
 ! D90   D(22,21,27,29)         32.4218         estimate D2E/DX2                !
 ! D91   D(22,21,27,30)        152.4258         estimate D2E/DX2                !
 ! D92   D(39,21,27,28)         27.6426         estimate D2E/DX2                !
 ! D93   D(39,21,27,29)        147.6317         estimate D2E/DX2                !
 ! D94   D(39,21,27,30)        -92.3642         estimate D2E/DX2                !
 ! D95   D(17,31,33,36)        -59.8101         estimate D2E/DX2                !
 ! D96   D(32,31,33,36)         60.1778         estimate D2E/DX2                !
 ! D97   D(34,31,33,36)       -179.8219         estimate D2E/DX2                !
 ! D98   D(31,33,36,35)          0.8461         estimate D2E/DX2                !
 ! D99   D(18,35,36,33)         58.8286         estimate D2E/DX2                !
 ! D100  D(37,35,36,33)        -61.1775         estimate D2E/DX2                !
 ! D101  D(38,35,36,33)        178.8228         estimate D2E/DX2                !
 --------------------------------------------------------------------------------
 Trust Radius=3.00D-01 FncErr=1.00D-07 GrdErr=1.00D-06 EigMax=2.50D+02 EigMin=1.00D-04
 Number of steps in this run=    227 maximum allowed number of steps=    240.
 GradGradGradGradGradGradGradGradGradGradGradGradGradGradGradGradGradGrad

                          Input orientation:                          
 ---------------------------------------------------------------------
 Center     Atomic      Atomic             Coordinates (Angstroms)
 Number     Number       Type             X           Y           Z
 ---------------------------------------------------------------------
      1          6           0        0.554381    2.422311    0.288112
      2          6           0       -0.150877    1.221206    0.148282
      3          6           0        0.540001    0.007058    0.204269
      4          6           0        1.923891    0.005816    0.399252
      5          6           0        2.613262    1.219933    0.536757
      6          6           0        1.943965    2.400973    0.482417
      7          1           0        0.033975    3.356303    0.246781
      8          6           0       -0.141837   -1.205779    0.067178
      9          6           0        2.622102   -1.209608    0.457475
     10          1           0        3.672876    1.215667    0.685385
     11          1           0        2.479866    3.320878    0.588511
     12          6           0        1.961598   -2.389403    0.324974
     13          6           0        0.572360   -2.408320    0.127826
     14          1           0        3.681623   -1.207399    0.607351
     15          1           0        2.504322   -3.310405    0.371127
     16          1           0        0.059192   -3.341527    0.023990
     17          7           0       -1.606478    1.236853   -0.055717
     18          7           0       -1.597309   -1.219054   -0.138991
     19          6           0       -1.988234    2.467577   -0.763962
     20          1           0       -2.834754    2.231556   -1.374371
     21          6           0       -1.968863   -2.400715   -0.930731
     22          1           0       -1.157477   -2.601661   -1.598694
     23          6           0       -2.341871    3.736274    0.033639
     24          1           0       -1.456559    4.315481    0.192650
     25          1           0       -3.053405    4.316410   -0.515627
     26          1           0       -2.761274    3.458401    0.978187
     27          6           0       -2.314186   -3.724037   -0.223215
     28          1           0       -3.019989   -4.270081   -0.813028
     29          1           0       -1.424972   -4.306001   -0.102063
     30          1           0       -2.737569   -3.515258    0.737163
     31          6           0       -2.284385    1.191288    1.247841
     32          1           0       -3.343861    1.201813    1.099212
     33          1           0       -2.005375    0.296482    1.763661
     34          1           0       -1.997342    2.042345    1.829408
     35          6           0       -2.276108   -1.269268    1.163970
     36          1           0       -2.005534   -0.409456    1.740328
     37          1           0       -3.335560   -1.279286    1.014217
     38          1           0       -1.981263   -2.155683    1.685751
     39          1           0       -2.816262   -2.129425   -1.525052
     40          1           0       -1.179594    2.720091   -1.417597
 ---------------------------------------------------------------------
                    Distance matrix (angstroms):
                    1          2          3          4          5
     1  C    0.000000
     2  C    1.399855   0.000000
     3  C    2.416750   1.398071   0.000000
     4  C    2.779812   2.417606   1.397559   0.000000
     5  C    2.397191   2.791304   2.424877   1.402933   0.000000
     6  C    1.403265   2.427315   2.789141   2.396684   1.358589
     7  H    1.069987   2.145347   3.387523   3.849779   3.361679
     8  C    3.700887   2.428356   1.398095   2.417740   3.700696
     9  C    4.182701   3.700522   2.424775   1.402905   2.430851
    10  H    3.367317   3.861295   3.392214   2.145824   1.069996
    11  H    2.145962   3.394589   3.859032   3.366685   2.105812
    12  C    5.013402   4.186916   2.789002   2.396666   3.673802
    13  C    4.833323   3.700938   2.416804   2.779993   4.182909
    14  H    4.801702   4.560364   3.392222   2.145884   2.652983
    15  H    6.055839   5.256922   3.859010   3.366751   4.534673
    16  H    5.791097   4.569257   3.387728   3.850017   5.252916
    17  N    2.488542   1.469910   2.487441   3.766424   4.261164
    18  N    4.251085   2.851238   2.487824   3.766810   4.912657
    19  C    2.752054   2.400315   3.658360   4.766346   4.941887
    20  H    3.779745   3.246917   4.339293   5.544759   5.861456
    21  C    5.577985   4.193763   3.657867   4.765897   6.021501
    22  H    5.633009   4.321976   3.596877   4.503948   5.777820
    23  C    3.190538   3.337539   4.716074   5.678619   5.580183
    24  H    2.763528   3.358766   4.748568   5.481180   5.124867
    25  H    4.153279   4.294850   5.656972   6.647684   6.542690
    26  H    3.541646   3.536659   4.838299   5.848613   5.838770
    27  C    6.802039   5.410485   4.717011   5.679838   7.021406
    28  H    7.666598   6.269780   5.657060   6.647921   7.980957
    29  H    7.024261   5.677676   4.749466   5.482514   6.873963
    30  H    6.803918   5.428798   4.840780   5.851611   7.147978
    31  C    3.239613   2.400372   3.235522   4.453654   4.949082
    32  H    4.164587   3.331635   4.160858   5.446977   5.983644
    33  H    3.639882   2.627494   2.999067   4.169559   4.867223
    34  H    3.005205   2.628666   3.636148   4.644229   4.858495
    35  C    4.733556   3.427928   3.237361   4.455404   5.522269
    36  H    4.084238   2.938268   3.002117   4.172686   5.043487
    37  H    5.418551   4.140593   4.163012   5.448990   6.470128
    38  H    5.416725   4.137330   3.637170   4.645146   5.815894
    39  H    5.947024   4.596852   4.338157   5.543577   6.704400
    40  H    2.450467   2.399353   3.598334   4.505535   4.522801
                    6          7          8          9         10
     6  C    0.000000
     7  H    2.148544   0.000000
     8  C    4.187081   4.569000   0.000000
     9  C    3.673797   5.252651   2.791362   0.000000
    10  H    2.106010   4.244561   4.560440   2.652928   0.000000
    11  H    1.069894   2.469902   5.256971   4.534612   2.421688
    12  C    4.792994   6.060939   2.427316   1.358579   4.006856
    13  C    5.013615   5.790932   1.399950   2.397294   4.801807
    14  H    4.006920   5.853437   3.861429   1.070072   2.424338
    15  H    5.739880   7.110771   3.394700   2.105867   4.685040
    16  H    6.061256   6.701582   2.145623   3.361770   5.853561
    17  N    3.774971   2.697158   2.850742   4.912171   5.331159
    18  N    5.102094   4.872761   1.470061   4.261371   5.863643
    19  C    4.125541   2.429149   4.194463   6.022358   5.976291
    20  H    5.129572   3.481780   4.598383   6.706305   6.901005
    21  C    6.353220   6.208152   2.400358   4.941943   6.893422
    22  H    6.243101   6.350014   2.398988   4.522262   6.566683
    23  C    4.511410   2.415461   5.409728   7.020143   6.554038
    24  H    3.913166   1.773314   5.677019   6.872569   6.013546
    25  H    5.444143   3.321895   6.269885   7.980926   7.503326
    26  H    4.848012   2.891158   5.426413   7.144381   6.820108
    27  C    7.493031   7.474355   3.338421   5.581454   7.814803
    28  H    8.415579   8.283213   4.295167   6.543229   8.782545
    29  H    7.528270   7.807760   3.359532   5.126357   7.556252
    30  H    7.548738   7.425651   3.538417   5.841260   7.967317
    31  C    4.464096   3.326290   3.424968   5.519293   5.983804
    32  H    5.457062   4.096125   4.136973   6.466799   7.028943
    33  H    4.654863   3.977735   2.933873   5.038647   5.852359
    34  H    4.180538   2.890924   4.135052   5.813489   5.843249
    35  C    5.634199   5.251060   2.400437   4.949258   6.464856
    36  H    5.007933   4.535551   2.628102   4.868363   5.999856
    37  H    6.457593   5.781991   3.331989   5.984025   7.446550
    38  H    6.133395   6.042666   2.627847   4.857436   6.658530
    39  H    6.871259   6.430899   3.246670   5.861081   7.627882
    40  H    3.669947   2.155846   4.323650   5.780253   5.498390
                   11         12         13         14         15
    11  H    0.000000
    12  C    5.739805   0.000000
    13  C    6.055949   1.403285   0.000000
    14  H    4.685069   2.106028   3.367443   0.000000
    15  H    6.634890   1.070011   2.146026   2.421667   0.000000
    16  H    7.110977   2.148554   1.070046   4.244622   2.469845
    17  N    4.632105   5.101551   4.250683   5.863279   6.144788
    18  N    6.145209   3.775023   2.488575   5.331442   4.632206
    19  C    4.745653   6.354306   5.579094   6.894434   7.406521
    20  H    5.769290   6.873574   5.949240   7.629993   7.890869
    21  C    7.405127   4.126190   2.752891   5.976427   4.746762
    22  H    7.286330   3.670719   2.451649   5.497953   4.217971
    23  C    4.871302   7.491905   6.801298   7.813548   8.558923
    24  H    4.079385   7.527069   7.023547   7.554806   8.595031
    25  H    5.729510   8.415747   7.666955   8.782605   9.478553
    26  H    5.257405   7.545132   6.801077   7.963550   8.597194
    27  C    8.559946   4.512659   3.191628   6.555382   4.872612
    28  H    9.478152   5.445017   4.154073   7.503938   5.730724
    29  H    8.596158   3.914661   2.764665   6.015140   4.080989
    30  H    8.600958   4.849704   3.542913   6.822689   5.258646
    31  C    5.260034   5.630400   4.729969   6.461980   6.630654
    32  H    6.218283   6.453229   5.414188   7.443363   7.422361
    33  H    5.535823   5.002067   4.078802   5.995052   5.940214
    34  H    4.818699   6.130001   5.413609   6.656192   7.144472
    35  C    6.634749   4.462821   3.238025   5.983996   5.258074
    36  H    5.946502   4.654197   3.638839   5.853554   5.534347
    37  H    7.427107   5.455942   4.163201   7.029336   6.216368
    38  H    7.148310   4.177618   3.001990   5.842128   4.814778
    39  H    7.888088   5.130120   3.780547   6.900708   5.770512
    40  H    4.216286   6.245844   5.635448   6.569401   7.289557
                   16         17         18         19         20
    16  H    0.000000
    17  N    4.872615   0.000000
    18  N    2.697304   2.457336   0.000000
    19  C    6.209550   1.470384   3.759609   0.000000
    20  H    6.433474   2.058383   3.868351   1.070000   0.000000
    21  C    2.430972   3.758839   1.470111   4.871186   4.733341
    22  H    2.158885   4.161319   2.058103   5.204240   5.120895
    23  C    7.473986   2.606893   5.013926   1.539747   2.118868
    24  H    7.807414   3.092266   5.546248   2.147681   2.949189
    25  H    8.283927   3.433480   5.736152   2.148126   2.265362
    26  H    7.423243   2.708835   4.947877   2.148118   2.654257
    27  C    2.416681   5.013915   2.606904   6.223724   6.088123
    28  H    3.323276   5.735665   3.433236   6.816374   6.528453
    29  H    1.774497   5.546019   3.091974   6.829109   6.807782
    30  H    2.891482   4.948797   2.709316   6.213630   6.123225
    31  C    5.247531   1.470000   2.864459   2.400827   2.874206
    32  H    5.777439   2.086525   3.231747   2.628936   2.727301
    33  H    4.530342   2.086517   2.466465   3.332090   3.778838
    34  H    6.039448   2.086932   3.830318   2.628017   3.316814
    35  C    3.323769   2.866476   1.470033   4.214713   4.360164
    36  H    3.975669   2.468878   2.086608   3.814327   4.167001
    37  H    4.093620   3.235034   2.086872   4.360756   4.275765
    38  H    2.886370   3.831772   2.086714   5.232177   5.416701
    39  H    3.483813   3.867086   2.058103   4.732580   4.363623
    40  H    6.352635   2.058383   4.162473   1.070000   1.726293
                   21         22         23         24         25
    21  C    0.000000
    22  H    1.070000   0.000000
    23  C    6.223486   6.651070   0.000000
    24  H    6.828742   7.151588   1.069832   0.000000
    25  H    6.816767   7.254467   1.069828   1.746875   0.000000
    26  H    6.212980   6.777672   1.070179   1.747551   1.747284
    27  C    1.539808   2.118878   7.464783   8.095821   8.079650
    28  H    2.147848   2.621039   8.079505   8.784507   8.591705
    29  H    2.147701   2.283907   8.095511   8.626575   8.784577
    30  H    2.148252   2.964385   7.296317   7.953487   7.937522
    31  C    4.212863   4.874336   2.820381   3.399898   3.669823
    32  H    4.357694   5.150280   2.926248   3.752158   3.520339
    33  H    3.812604   4.519247   3.865019   4.349899   4.738495
    34  H    5.230674   5.833013   2.492565   2.852818   3.433050
    35  C    2.400488   3.264800   5.132000   5.727525   5.884304
    36  H    3.331818   4.083384   4.495886   5.002171   5.340523
    37  H    2.628362   3.649661   5.206227   5.958778   5.807913
    38  H    2.627959   3.415420   6.129818   6.661878   6.919793
    39  H    1.070000   1.726267   6.087774   6.807063   6.528704
    40  H    5.204098   5.324878   2.118868   2.283610   2.621632
                   26         27         28         29         30
    26  H    0.000000
    27  C    7.295936   0.000000
    28  H    7.937557   1.069672   0.000000
    29  H    7.952269   1.069608   1.746665   0.000000
    30  H    6.977863   1.070125   1.747172   1.747136   0.000000
    31  C    2.332367   5.130820   5.883438   5.725471   4.755812
    32  H    2.333719   5.203176   5.805443   5.954931   4.769636
    33  H    3.344560   4.495288   5.340624   5.000064   4.014869
    34  H    1.820270   6.129014   6.919175   6.660306   5.712082
    35  C    4.756128   2.819863   3.669708   3.398384   2.332291
    36  H    4.014016   3.864869   4.738477   4.349082   3.344879
    37  H    4.772503   2.924252   3.518985   3.749324   2.331077
    38  H    5.712005   2.492935   3.434170   2.851246   1.822158
    39  H    6.123156   2.118878   2.265146   2.949248   2.654118
    40  H    2.964220   6.651363   7.253623   7.152398   6.778632
                   31         32         33         34         35
    31  C    0.000000
    32  H    1.069902   0.000000
    33  H    1.069857   1.747186   0.000000
    34  H    1.070005   1.747224   1.747118   0.000000
    35  C    2.461999   2.692681   1.698381   3.389292   0.000000
    36  H    1.697847   2.190511   0.706324   2.453433   1.069895
    37  H    2.695049   2.482568   2.194107   3.672683   1.070031
    38  H    3.389080   3.670623   2.453521   4.200516   1.070009
    39  H    4.358780   4.273438   4.166317   5.415412   2.874452
    40  H    3.265328   3.650144   4.083649   3.416298   4.876661
                   36         37         38         39         40
    36  H    0.000000
    37  H    1.747230   0.000000
    38  H    1.747248   1.747327   0.000000
    39  H    3.778660   2.727690   3.317704   0.000000
    40  H    4.522027   5.153341   5.834947   5.119378   0.000000
 Stoichiometry    C16H22N2
 Framework group  C1[X(C16H22N2)]
 Deg. of freedom   114
 Full point group                 C1      NOp   1
 Largest Abelian subgroup         C1      NOp   1
 Largest concise Abelian subgroup C1      NOp   1
                         Standard orientation:                         
 ---------------------------------------------------------------------
 Center     Atomic      Atomic             Coordinates (Angstroms)
 Number     Number       Type             X           Y           Z
 ---------------------------------------------------------------------
      1          6           0       -2.417445    0.950320   -0.060730
      2          6           0       -1.214516    0.236008   -0.108836
      3          6           0       -0.000795    0.928265   -0.061240
      4          6           0       -0.001808    2.322567    0.034105
      5          6           0       -1.217714    3.020876    0.080589
      6          6           0       -2.398333    2.350239    0.034214
      7          1           0       -3.351133    0.428950   -0.096403
      8          6           0        1.213840    0.237501   -0.107893
      9          6           0        1.213135    3.022297    0.083449
     10          1           0       -1.215154    4.088413    0.153041
     11          1           0       -3.319615    2.893014    0.070365
     12          6           0        2.394658    2.353166    0.038721
     13          6           0        2.415876    0.953359   -0.057715
     14          1           0        1.209181    4.089836    0.156932
     15          1           0        3.315270    2.897151    0.077163
     16          1           0        3.350447    0.433411   -0.092790
     17          7           0       -1.227820   -1.230457   -0.208526
     18          7           0        1.229516   -1.229011   -0.208772
     19          6           0       -2.435071   -1.661109   -0.929021
     20          1           0       -2.181191   -2.549355   -1.468894
     21          6           0        2.436113   -1.657172   -0.931288
     22          1           0        2.662086   -0.895874   -1.648408
     23          6           0       -3.731128   -1.955793   -0.151706
     24          1           0       -4.312601   -1.060955   -0.076245
     25          1           0       -4.294579   -2.704444   -0.668016
     26          1           0       -3.486684   -2.306637    0.829334
     27          6           0        3.733653   -1.951848   -0.156326
     28          1           0        4.297120   -2.698482   -0.675211
     29          1           0        4.313972   -1.056650   -0.079442
     30          1           0        3.491177   -2.305183    0.824249
     31          6           0       -1.228506   -1.813253    1.141010
     32          1           0       -1.237321   -2.880647    1.068334
     33          1           0       -0.350792   -1.498632    1.665629
     34          1           0       -2.097846   -1.484677    1.671292
     35          6           0        1.233492   -1.812743    1.140390
     36          1           0        0.355528   -1.500961    1.666360
     37          1           0        1.245247   -2.880209    1.067289
     38          1           0        2.102669   -1.481895    1.669532
     39          1           0        2.182428   -2.544785   -1.472293
     40          1           0       -2.662789   -0.901203   -1.647065
 ---------------------------------------------------------------------
 Rotational constants (GHZ):           0.5451459           0.4329094           0.2612694
 Standard basis: 6-31G(d) (6D, 7F)
 There are   314 symmetry adapted cartesian basis functions of A   symmetry.
 There are   314 symmetry adapted basis functions of A   symmetry.
   314 basis functions,   592 primitive gaussians,   314 cartesian basis functions
    66 alpha electrons       66 beta electrons
       nuclear repulsion energy      1391.8535333913 Hartrees.
 NAtoms=   40 NActive=   40 NUniq=   40 SFac= 1.00D+00 NAtFMM=   60 NAOKFM=F Big=F
 Integral buffers will be    131072 words long.
 Raffenetti 2 integral format.
 Two-electron integral symmetry is turned on.
 ------------------------------------------------------------------------------
 Polarizable Continuum Model (PCM)
 =================================
 Model                : PCM.
 Atomic radii         : SMD-Coulomb.
 Polarization charges : Total charges.
 Charge compensation  : None.
 Solution method      : On-the-fly selection.
 Cavity type          : VdW (van der Waals Surface) (Alpha=1.000).
 Cavity algorithm     : GePol (No added spheres)
                        Default sphere list used, NSphG=   40.
                        Lebedev-Laikov grids with approx.  5.0 points / Ang**2.
                        Smoothing algorithm: York/Karplus (Gamma=1.0000).
                        Polarization charges: spherical gaussians, with
                                              point-specific exponents (IZeta= 3).
                        Self-potential: point-specific (ISelfS= 7).
                        Self-field    : sphere-specific E.n sum rule (ISelfD= 2).
 1st derivatives      : Analytical E(r).r(x)/FMM algorithm (CHGder, D1EAlg=3).
                        Cavity 1st derivative terms included.
 Solvent              : Toluene, Eps=   2.374100 Eps(inf)=   2.238315
 ------------------------------------------------------------------------------
 ------------------------------------------------------------------------------
 Atomic radii for non-electrostatic terms: SMD-CDS.
 ------------------------------------------------------------------------------
 Nuclear repulsion after PCM non-electrostatic terms =     1391.8433407298 Hartrees.
 One-electron integrals computed using PRISM.
 NBasis=   314 RedAO= T EigKep=  1.87D-04  NBF=   314
 NBsUse=   314 1.00D-06 EigRej= -1.00D+00 NBFU=   314
 ExpMin= 1.61D-01 ExpMax= 4.17D+03 ExpMxC= 6.27D+02 IAcc=3 IRadAn=         5 AccDes= 0.00D+00
 Harris functional with IExCor=  402 and IRadAn=       5 diagonalized for initial guess.
 HarFok:  IExCor=  402 AccDes= 0.00D+00 IRadAn=         5 IDoV= 1 UseB2=F ITyADJ=14
 ICtDFT=  3500011 ScaDFX=  1.000000  1.000000  1.000000  1.000000
 FoFCou: FMM=F IPFlag=           0 FMFlag=      100000 FMFlg1=           0
         NFxFlg=           0 DoJE=T BraDBF=F KetDBF=T FulRan=T
         wScrn=  0.000000 ICntrl=       500 IOpCl=  0 I1Cent=   200000004 NGrid=           0
         NMat0=    1 NMatS0=      1 NMatT0=    0 NMatD0=    1 NMtDS0=    0 NMtDT0=    0
 Petite list used in FoFCou.
 Requested convergence on RMS density matrix=1.00D-08 within 128 cycles.
 Requested convergence on MAX density matrix=1.00D-06.
 Requested convergence on             energy=1.00D-06.
 No special actions if energy rises.
 Inv3:  Mode=1 IEnd=    20124300.
 Iteration    1 A*A^-1 deviation from unit magnitude is 4.77D-15 for   2549.
 Iteration    1 A*A^-1 deviation from orthogonality  is 1.92D-15 for   2549   2496.
 Iteration    1 A^-1*A deviation from unit magnitude is 4.55D-15 for   2549.
 Iteration    1 A^-1*A deviation from orthogonality  is 1.08D-13 for   1281   1250.
 Error on total polarization charges =  0.03542
 SCF Done:  E(RB3LYP) =  -732.231770291     A.U. after   13 cycles
            NFock= 13  Conv=0.48D-08     -V/T= 2.0070
 SMD-CDS (non-electrostatic) energy       (kcal/mol) =      -6.40
 (included in total energy above)

 **********************************************************************

            Population analysis using the SCF Density.

 **********************************************************************

 Orbital symmetries:
       Occupied  (A) (A) (A) (A) (A) (A) (A) (A) (A) (A) (A) (A)
                 (A) (A) (A) (A) (A) (A) (A) (A) (A) (A) (A) (A)
                 (A) (A) (A) (A) (A) (A) (A) (A) (A) (A) (A) (A)
                 (A) (A) (A) (A) (A) (A) (A) (A) (A) (A) (A) (A)
                 (A) (A) (A) (A) (A) (A) (A) (A) (A) (A) (A) (A)
                 (A) (A) (A) (A) (A) (A)
       Virtual   (A) (A) (A) (A) (A) (A) (A) (A) (A) (A) (A) (A)
                 (A) (A) (A) (A) (A) (A) (A) (A) (A) (A) (A) (A)
                 (A) (A) (A) (A) (A) (A) (A) (A) (A) (A) (A) (A)
                 (A) (A) (A) (A) (A) (A) (A) (A) (A) (A) (A) (A)
                 (A) (A) (A) (A) (A) (A) (A) (A) (A) (A) (A) (A)
                 (A) (A) (A) (A) (A) (A) (A) (A) (A) (A) (A) (A)
                 (A) (A) (A) (A) (A) (A) (A) (A) (A) (A) (A) (A)
                 (A) (A) (A) (A) (A) (A) (A) (A) (A) (A) (A) (A)
                 (A) (A) (A) (A) (A) (A) (A) (A) (A) (A) (A) (A)
                 (A) (A) (A) (A) (A) (A) (A) (A) (A) (A) (A) (A)
                 (A) (A) (A) (A) (A) (A) (A) (A) (A) (A) (A) (A)
                 (A) (A) (A) (A) (A) (A) (A) (A) (A) (A) (A) (A)
                 (A) (A) (A) (A) (A) (A) (A) (A) (A) (A) (A) (A)
                 (A) (A) (A) (A) (A) (A) (A) (A) (A) (A) (A) (A)
                 (A) (A) (A) (A) (A) (A) (A) (A) (A) (A) (A) (A)
                 (A) (A) (A) (A) (A) (A) (A) (A) (A) (A) (A) (A)
                 (A) (A) (A) (A) (A) (A) (A) (A) (A) (A) (A) (A)
                 (A) (A) (A) (A) (A) (A) (A) (A) (A) (A) (A) (A)
                 (A) (A) (A) (A) (A) (A) (A) (A) (A) (A) (A) (A)
                 (A) (A) (A) (A) (A) (A) (A) (A) (A) (A) (A) (A)
                 (A) (A) (A) (A) (A) (A) (A) (A)
 The electronic state is 1-A.
 Alpha  occ. eigenvalues --  -14.31893 -14.31887 -10.20822 -10.20820 -10.18590
 Alpha  occ. eigenvalues --  -10.18588 -10.18287 -10.18052 -10.17598 -10.17596
 Alpha  occ. eigenvalues --  -10.17220 -10.17214 -10.17025 -10.17022 -10.16938
 Alpha  occ. eigenvalues --  -10.16931 -10.15587 -10.15582  -0.93534  -0.90701
 Alpha  occ. eigenvalues --   -0.86364  -0.80809  -0.77434  -0.76611  -0.73611
 Alpha  occ. eigenvalues --   -0.73382  -0.70841  -0.70357  -0.65618  -0.61966
 Alpha  occ. eigenvalues --   -0.61596  -0.60357  -0.57912  -0.57149  -0.52200
 Alpha  occ. eigenvalues --   -0.51620  -0.49221  -0.48824  -0.47490  -0.44846
 Alpha  occ. eigenvalues --   -0.44504  -0.44043  -0.43853  -0.42946  -0.41850
 Alpha  occ. eigenvalues --   -0.41420  -0.41036  -0.40411  -0.38730  -0.38113
 Alpha  occ. eigenvalues --   -0.37780  -0.37059  -0.36102  -0.35290  -0.35261
 Alpha  occ. eigenvalues --   -0.34634  -0.33106  -0.32197  -0.32139  -0.31295
 Alpha  occ. eigenvalues --   -0.28219  -0.26023  -0.23791  -0.23197  -0.20997
 Alpha  occ. eigenvalues --   -0.16288
 Alpha virt. eigenvalues --   -0.02430   0.00158   0.04416   0.10186   0.10521
 Alpha virt. eigenvalues --    0.11427   0.11741   0.12658   0.13687   0.14054
 Alpha virt. eigenvalues --    0.14577   0.14775   0.15333   0.15853   0.16461
 Alpha virt. eigenvalues --    0.17985   0.18744   0.19158   0.19379   0.19522
 Alpha virt. eigenvalues --    0.20375   0.21370   0.22243   0.22492   0.23060
 Alpha virt. eigenvalues --    0.23205   0.23731   0.25033   0.26874   0.28030
 Alpha virt. eigenvalues --    0.28873   0.28901   0.29022   0.29259   0.31663
 Alpha virt. eigenvalues --    0.33893   0.34377   0.35989   0.36082   0.40883
 Alpha virt. eigenvalues --    0.41325   0.45834   0.46350   0.48661   0.51442
 Alpha virt. eigenvalues --    0.51585   0.53102   0.53402   0.54521   0.55028
 Alpha virt. eigenvalues --    0.56290   0.56824   0.56850   0.57301   0.58198
 Alpha virt. eigenvalues --    0.58676   0.59935   0.60531   0.60625   0.61360
 Alpha virt. eigenvalues --    0.61462   0.62050   0.62430   0.62568   0.63837
 Alpha virt. eigenvalues --    0.64460   0.64910   0.66016   0.66451   0.66966
 Alpha virt. eigenvalues --    0.67884   0.69358   0.70531   0.71134   0.71863
 Alpha virt. eigenvalues --    0.73180   0.73494   0.79337   0.79375   0.83015
 Alpha virt. eigenvalues --    0.83809   0.84394   0.85502   0.86258   0.86380
 Alpha virt. eigenvalues --    0.86914   0.87191   0.87612   0.88827   0.89649
 Alpha virt. eigenvalues --    0.89732   0.90937   0.92159   0.92233   0.93624
 Alpha virt. eigenvalues --    0.93633   0.93954   0.95296   0.95373   0.95497
 Alpha virt. eigenvalues --    0.97434   0.98252   0.98739   0.99179   1.00396
 Alpha virt. eigenvalues --    1.01022   1.03453   1.03885   1.04251   1.05156
 Alpha virt. eigenvalues --    1.05998   1.08213   1.08403   1.09429   1.11043
 Alpha virt. eigenvalues --    1.13119   1.15265   1.17177   1.17534   1.21236
 Alpha virt. eigenvalues --    1.21405   1.22058   1.25217   1.25342   1.26745
 Alpha virt. eigenvalues --    1.27873   1.30278   1.33988   1.34151   1.37562
 Alpha virt. eigenvalues --    1.38857   1.40568   1.41323   1.46539   1.46569
 Alpha virt. eigenvalues --    1.47152   1.48245   1.49469   1.49982   1.52131
 Alpha virt. eigenvalues --    1.52206   1.55802   1.58270   1.61426   1.62457
 Alpha virt. eigenvalues --    1.66055   1.67890   1.68316   1.70728   1.75480
 Alpha virt. eigenvalues --    1.76950   1.77515   1.79381   1.84324   1.84889
 Alpha virt. eigenvalues --    1.86811   1.87041   1.89117   1.89749   1.91218
 Alpha virt. eigenvalues --    1.94611   1.95075   1.96292   1.97271   1.98022
 Alpha virt. eigenvalues --    1.99575   1.99650   2.01478   2.02421   2.03463
 Alpha virt. eigenvalues --    2.05289   2.05510   2.07791   2.09606   2.09790
 Alpha virt. eigenvalues --    2.11357   2.11769   2.14353   2.16672   2.18343
 Alpha virt. eigenvalues --    2.18748   2.20565   2.20849   2.22251   2.24081
 Alpha virt. eigenvalues --    2.25164   2.27028   2.28239   2.29033   2.31106
 Alpha virt. eigenvalues --    2.32367   2.33307   2.33717   2.34765   2.35385
 Alpha virt. eigenvalues --    2.37602   2.37913   2.41244   2.41734   2.41967
 Alpha virt. eigenvalues --    2.48107   2.48190   2.49318   2.49600   2.54124
 Alpha virt. eigenvalues --    2.57254   2.58267   2.62462   2.64156   2.67127
 Alpha virt. eigenvalues --    2.67466   2.68646   2.69833   2.71295   2.74946
 Alpha virt. eigenvalues --    2.76303   2.77022   2.78459   2.82184   2.85718
 Alpha virt. eigenvalues --    2.86876   2.88877   2.92350   2.98470   2.99499
 Alpha virt. eigenvalues --    3.02817   3.04375   3.19696   3.46531   3.55299
 Alpha virt. eigenvalues --    4.12059   4.12692   4.12696   4.14429   4.18966
 Alpha virt. eigenvalues --    4.19824   4.21839   4.30796   4.35471   4.36058
 Alpha virt. eigenvalues --    4.37604   4.46205   4.47840   4.49255   4.50777
 Alpha virt. eigenvalues --    4.56379   4.70274   4.89121
          Condensed to atoms (all electrons):
               1          2          3          4          5          6
     1  C    5.161721   0.450458  -0.037361  -0.056852  -0.018839   0.449783
     2  C    0.450458   5.054712   0.378334  -0.036358  -0.085835   0.017397
     3  C   -0.037361   0.378334   4.976139   0.451148  -0.015317  -0.050739
     4  C   -0.056852  -0.036358   0.451148   4.789030   0.426409   0.016181
     5  C   -0.018839  -0.085835  -0.015317   0.426409   5.181208   0.487977
     6  C    0.449783   0.017397  -0.050739   0.016181   0.487977   4.956978
     7  H    0.353527  -0.046358   0.003472   0.000909   0.005132  -0.043395
     8  C    0.014616  -0.103781   0.378262  -0.036424   0.020709  -0.002237
     9  C   -0.000542   0.020713  -0.015279   0.426379  -0.112972   0.010711
    10  H    0.004847   0.000833   0.004534  -0.042852   0.362001  -0.048202
    11  H   -0.036993   0.002642   0.001562   0.002532  -0.036439   0.354976
    12  C    0.000075  -0.002234  -0.050729   0.016157   0.010712  -0.000526
    13  C   -0.000476   0.014599  -0.037381  -0.056817  -0.000543   0.000075
    14  H    0.000017  -0.000178   0.004533  -0.042841  -0.009635   0.000408
    15  H   -0.000001   0.000022   0.001561   0.002532  -0.000278   0.000005
    16  H    0.000004  -0.000147   0.003473   0.000909   0.000008  -0.000001
    17  N   -0.098559   0.310127  -0.066891   0.005546   0.000072   0.005899
    18  N    0.000418  -0.011574  -0.066917   0.005538  -0.000095  -0.000010
    19  C   -0.008093  -0.047975   0.004226  -0.000148  -0.000002   0.000068
    20  H    0.000149   0.006239   0.000159   0.000003   0.000000  -0.000004
    21  C    0.000015   0.000541   0.004204  -0.000148   0.000003  -0.000000
    22  H    0.000001   0.000009  -0.000358  -0.000078   0.000001  -0.000000
    23  C   -0.005254  -0.008890  -0.000753   0.000003  -0.000003   0.000314
    24  H   -0.008475   0.001638   0.000019  -0.000004   0.000000   0.000292
    25  H    0.000185   0.000185   0.000011  -0.000000   0.000000  -0.000006
    26  H    0.000407  -0.000194  -0.000041   0.000000   0.000000  -0.000025
    27  C    0.000000  -0.000000  -0.000751   0.000003   0.000000  -0.000000
    28  H    0.000000  -0.000000   0.000011  -0.000000   0.000000   0.000000
    29  H   -0.000000   0.000000   0.000019  -0.000004  -0.000000   0.000000
    30  H   -0.000000  -0.000000  -0.000041   0.000000   0.000000  -0.000000
    31  C   -0.005134  -0.049982  -0.005329  -0.000288   0.000058  -0.000070
    32  H   -0.000244   0.005888   0.000393   0.000010  -0.000000   0.000008
    33  H   -0.000123  -0.003917   0.003245  -0.000014  -0.000021   0.000001
    34  H    0.010089  -0.004429  -0.002076  -0.000078  -0.000032  -0.000415
    35  C    0.000072   0.000384  -0.005246  -0.000289  -0.000002   0.000002
    36  H   -0.000147  -0.000006   0.003167  -0.000004   0.000013   0.000002
    37  H   -0.000002  -0.000267   0.000388   0.000010  -0.000000   0.000000
    38  H   -0.000001   0.000314  -0.002075  -0.000077   0.000002  -0.000000
    39  H   -0.000000  -0.000048   0.000160   0.000003  -0.000000   0.000000
    40  H    0.006624  -0.005114  -0.000354  -0.000077  -0.000044  -0.000210
               7          8          9         10         11         12
     1  C    0.353527   0.014616  -0.000542   0.004847  -0.036993   0.000075
     2  C   -0.046358  -0.103781   0.020713   0.000833   0.002642  -0.002234
     3  C    0.003472   0.378262  -0.015279   0.004534   0.001562  -0.050729
     4  C    0.000909  -0.036424   0.426379  -0.042852   0.002532   0.016157
     5  C    0.005132   0.020709  -0.112972   0.362001  -0.036439   0.010712
     6  C   -0.043395  -0.002237   0.010711  -0.048202   0.354976  -0.000526
     7  H    0.604650  -0.000147   0.000008  -0.000222  -0.004924  -0.000001
     8  C   -0.000147   5.055297  -0.085827  -0.000178   0.000022   0.017367
     9  C    0.000008  -0.085827   5.181193  -0.009638  -0.000278   0.487986
    10  H   -0.000222  -0.000178  -0.009638   0.595252  -0.005552   0.000408
    11  H   -0.004924   0.000022  -0.000278  -0.005552   0.588016   0.000005
    12  C   -0.000001   0.017367   0.487986   0.000408   0.000005   4.956981
    13  C    0.000004   0.450350  -0.018830   0.000017  -0.000001   0.449786
    14  H    0.000000   0.000833   0.361989   0.006113  -0.000014  -0.048199
    15  H   -0.000000   0.002641  -0.036429  -0.000014  -0.000000   0.354957
    16  H   -0.000000  -0.046297   0.005129   0.000000  -0.000000  -0.043387
    17  N   -0.012510  -0.011554  -0.000096   0.000006  -0.000120  -0.000010
    18  N   -0.000002   0.310210   0.000072   0.000001  -0.000000   0.005898
    19  C    0.004592   0.000539   0.000003  -0.000000  -0.000005  -0.000000
    20  H    0.000083  -0.000048  -0.000000  -0.000000  -0.000000   0.000000
    21  C    0.000000  -0.047959  -0.000002  -0.000000   0.000000   0.000065
    22  H   -0.000000  -0.005079  -0.000044  -0.000000  -0.000000  -0.000215
    23  C    0.002538  -0.000000   0.000000   0.000000   0.000012  -0.000000
    24  H    0.010267   0.000000  -0.000000   0.000000  -0.000019   0.000000
    25  H   -0.000128  -0.000000   0.000000  -0.000000  -0.000000   0.000000
    26  H   -0.000982  -0.000000   0.000000   0.000000  -0.000000  -0.000000
    27  C   -0.000000  -0.008866  -0.000003   0.000000  -0.000000   0.000312
    28  H   -0.000000   0.000184   0.000000  -0.000000   0.000000  -0.000006
    29  H   -0.000000   0.001636   0.000000  -0.000000   0.000000   0.000293
    30  H    0.000000  -0.000192   0.000000   0.000000  -0.000000  -0.000025
    31  C   -0.000343   0.000341  -0.000002   0.000000  -0.000002   0.000002
    32  H   -0.000067  -0.000270  -0.000000   0.000000  -0.000000   0.000000
    33  H    0.000058   0.000198   0.000013  -0.000000   0.000000   0.000001
    34  H    0.000999   0.000317   0.000002  -0.000000   0.000013  -0.000000
    35  C   -0.000005  -0.049914   0.000058  -0.000000   0.000000  -0.000072
    36  H   -0.000012  -0.004155  -0.000021  -0.000000  -0.000000   0.000005
    37  H   -0.000000   0.005891  -0.000000   0.000000   0.000000   0.000008
    38  H    0.000000  -0.004483  -0.000032   0.000000  -0.000000  -0.000418
    39  H    0.000000   0.006240   0.000000   0.000000   0.000000  -0.000004
    40  H   -0.002437   0.000009   0.000001  -0.000000   0.000009  -0.000000
              13         14         15         16         17         18
     1  C   -0.000476   0.000017  -0.000001   0.000004  -0.098559   0.000418
     2  C    0.014599  -0.000178   0.000022  -0.000147   0.310127  -0.011574
     3  C   -0.037381   0.004533   0.001561   0.003473  -0.066891  -0.066917
     4  C   -0.056817  -0.042841   0.002532   0.000909   0.005546   0.005538
     5  C   -0.000543  -0.009635  -0.000278   0.000008   0.000072  -0.000095
     6  C    0.000075   0.000408   0.000005  -0.000001   0.005899  -0.000010
     7  H    0.000004   0.000000  -0.000000  -0.000000  -0.012510  -0.000002
     8  C    0.450350   0.000833   0.002641  -0.046297  -0.011554   0.310210
     9  C   -0.018830   0.361989  -0.036429   0.005129  -0.000096   0.000072
    10  H    0.000017   0.006113  -0.000014   0.000000   0.000006   0.000001
    11  H   -0.000001  -0.000014  -0.000000  -0.000000  -0.000120  -0.000000
    12  C    0.449786  -0.048199   0.354957  -0.043387  -0.000010   0.005898
    13  C    5.161648   0.004847  -0.036994   0.353542   0.000418  -0.098549
    14  H    0.004847   0.595225  -0.005554  -0.000221   0.000001   0.000006
    15  H   -0.036994  -0.005554   0.588023  -0.004919  -0.000000  -0.000120
    16  H    0.353542  -0.000221  -0.004919   0.604437  -0.000002  -0.012480
    17  N    0.000418   0.000001  -0.000000  -0.000002   6.985109  -0.069135
    18  N   -0.098549   0.000006  -0.000120  -0.012480  -0.069135   6.984889
    19  C    0.000015  -0.000000   0.000000   0.000000   0.316200   0.001933
    20  H   -0.000000   0.000000   0.000000   0.000000  -0.054736   0.000673
    21  C   -0.008107  -0.000000  -0.000005   0.004561   0.001931   0.316359
    22  H    0.006622  -0.000000   0.000009  -0.002419  -0.000168  -0.041082
    23  C    0.000000   0.000000  -0.000000  -0.000000  -0.037305  -0.000046
    24  H   -0.000000  -0.000000   0.000000  -0.000000   0.002762   0.000000
    25  H    0.000000  -0.000000   0.000000  -0.000000   0.002884   0.000001
    26  H   -0.000000   0.000000  -0.000000   0.000000  -0.010456  -0.000019
    27  C   -0.005222   0.000000   0.000012   0.002541  -0.000046  -0.037344
    28  H    0.000184  -0.000000  -0.000000  -0.000128   0.000001   0.002887
    29  H   -0.008445   0.000000  -0.000019   0.010254   0.000000   0.002765
    30  H    0.000404   0.000000  -0.000000  -0.000974  -0.000019  -0.010455
    31  C    0.000073  -0.000000   0.000000  -0.000005   0.306489   0.007155
    32  H   -0.000002   0.000000   0.000000  -0.000000  -0.039056   0.001117
    33  H   -0.000142  -0.000000  -0.000000  -0.000012  -0.045949   0.002834
    34  H   -0.000001   0.000000  -0.000000   0.000000  -0.043992  -0.000510
    35  C   -0.005146   0.000000  -0.000002  -0.000348   0.007261   0.306905
    36  H   -0.000140  -0.000000   0.000000   0.000056   0.002416  -0.046649
    37  H   -0.000243   0.000000  -0.000000  -0.000067   0.001113  -0.038980
    38  H    0.010139  -0.000000   0.000013   0.001011  -0.000514  -0.044102
    39  H    0.000148  -0.000000  -0.000000   0.000083   0.000677  -0.054783
    40  H    0.000001  -0.000000  -0.000000  -0.000000  -0.041035  -0.000168
              19         20         21         22         23         24
     1  C   -0.008093   0.000149   0.000015   0.000001  -0.005254  -0.008475
     2  C   -0.047975   0.006239   0.000541   0.000009  -0.008890   0.001638
     3  C    0.004226   0.000159   0.004204  -0.000358  -0.000753   0.000019
     4  C   -0.000148   0.000003  -0.000148  -0.000078   0.000003  -0.000004
     5  C   -0.000002   0.000000   0.000003   0.000001  -0.000003   0.000000
     6  C    0.000068  -0.000004  -0.000000  -0.000000   0.000314   0.000292
     7  H    0.004592   0.000083   0.000000  -0.000000   0.002538   0.010267
     8  C    0.000539  -0.000048  -0.047959  -0.005079  -0.000000   0.000000
     9  C    0.000003  -0.000000  -0.000002  -0.000044   0.000000  -0.000000
    10  H   -0.000000  -0.000000  -0.000000  -0.000000   0.000000   0.000000
    11  H   -0.000005  -0.000000   0.000000  -0.000000   0.000012  -0.000019
    12  C   -0.000000   0.000000   0.000065  -0.000215  -0.000000   0.000000
    13  C    0.000015  -0.000000  -0.008107   0.006622   0.000000  -0.000000
    14  H   -0.000000   0.000000  -0.000000  -0.000000   0.000000  -0.000000
    15  H    0.000000   0.000000  -0.000005   0.000009  -0.000000   0.000000
    16  H    0.000000   0.000000   0.004561  -0.002419  -0.000000  -0.000000
    17  N    0.316200  -0.054736   0.001931  -0.000168  -0.037305   0.002762
    18  N    0.001933   0.000673   0.316359  -0.041082  -0.000046   0.000000
    19  C    4.930372   0.389275  -0.000063   0.000008   0.342103  -0.038825
    20  H    0.389275   0.603955   0.000001  -0.000000  -0.061123   0.006387
    21  C   -0.000063   0.000001   4.930033   0.382716   0.000001  -0.000000
    22  H    0.000008  -0.000000   0.382716   0.574671  -0.000000  -0.000000
    23  C    0.342103  -0.061123   0.000001  -0.000000   5.207732   0.372139
    24  H   -0.038825   0.006387  -0.000000  -0.000000   0.372139   0.554987
    25  H   -0.024775  -0.005234  -0.000000   0.000000   0.361868  -0.025736
    26  H   -0.041200  -0.000184   0.000000  -0.000000   0.379295  -0.029696
    27  C    0.000001   0.000001   0.342169  -0.045383  -0.000000   0.000000
    28  H   -0.000000  -0.000000  -0.024787   0.002031   0.000000  -0.000000
    29  H   -0.000000  -0.000000  -0.038777  -0.009906   0.000000  -0.000000
    30  H    0.000000   0.000000  -0.041168   0.005586  -0.000000  -0.000000
    31  C   -0.054719   0.000750  -0.001020   0.000042  -0.019837  -0.000215
    32  H   -0.000027   0.003525  -0.000030   0.000000  -0.004561   0.000293
    33  H    0.009223  -0.000425  -0.001335   0.000051   0.001559  -0.000100
    34  H   -0.018636  -0.001202   0.000020  -0.000000   0.001293  -0.000661
    35  C   -0.001022  -0.000021  -0.054755   0.006894  -0.000024   0.000000
    36  H   -0.001322   0.000115   0.009273  -0.000406  -0.000218   0.000012
    37  H   -0.000029  -0.000017  -0.000061  -0.000155   0.000007  -0.000000
    38  H    0.000020   0.000002  -0.018609  -0.000043  -0.000000   0.000000
    39  H    0.000001  -0.000032   0.389286  -0.030778   0.000001  -0.000000
    40  H    0.382752  -0.030756   0.000008  -0.000002  -0.045435  -0.009921
              25         26         27         28         29         30
     1  C    0.000185   0.000407   0.000000   0.000000  -0.000000  -0.000000
     2  C    0.000185  -0.000194  -0.000000  -0.000000   0.000000  -0.000000
     3  C    0.000011  -0.000041  -0.000751   0.000011   0.000019  -0.000041
     4  C   -0.000000   0.000000   0.000003  -0.000000  -0.000004   0.000000
     5  C    0.000000   0.000000   0.000000   0.000000  -0.000000   0.000000
     6  C   -0.000006  -0.000025  -0.000000   0.000000   0.000000  -0.000000
     7  H   -0.000128  -0.000982  -0.000000  -0.000000  -0.000000   0.000000
     8  C   -0.000000  -0.000000  -0.008866   0.000184   0.001636  -0.000192
     9  C    0.000000   0.000000  -0.000003   0.000000   0.000000   0.000000
    10  H   -0.000000   0.000000   0.000000  -0.000000  -0.000000   0.000000
    11  H   -0.000000  -0.000000  -0.000000   0.000000   0.000000  -0.000000
    12  C    0.000000  -0.000000   0.000312  -0.000006   0.000293  -0.000025
    13  C    0.000000  -0.000000  -0.005222   0.000184  -0.008445   0.000404
    14  H   -0.000000   0.000000   0.000000  -0.000000   0.000000   0.000000
    15  H    0.000000  -0.000000   0.000012  -0.000000  -0.000019  -0.000000
    16  H   -0.000000   0.000000   0.002541  -0.000128   0.010254  -0.000974
    17  N    0.002884  -0.010456  -0.000046   0.000001   0.000000  -0.000019
    18  N    0.000001  -0.000019  -0.037344   0.002887   0.002765  -0.010455
    19  C   -0.024775  -0.041200   0.000001  -0.000000  -0.000000   0.000000
    20  H   -0.005234  -0.000184   0.000001  -0.000000  -0.000000   0.000000
    21  C   -0.000000   0.000000   0.342169  -0.024787  -0.038777  -0.041168
    22  H    0.000000  -0.000000  -0.045383   0.002031  -0.009906   0.005586
    23  C    0.361868   0.379295  -0.000000   0.000000   0.000000  -0.000000
    24  H   -0.025736  -0.029696   0.000000  -0.000000  -0.000000  -0.000000
    25  H    0.564338  -0.026261   0.000000  -0.000000  -0.000000   0.000000
    26  H   -0.026261   0.548990  -0.000000   0.000000  -0.000000  -0.000000
    27  C    0.000000  -0.000000   5.207528   0.361897   0.372141   0.379326
    28  H   -0.000000   0.000000   0.361897   0.564321  -0.025736  -0.026271
    29  H   -0.000000  -0.000000   0.372141  -0.025736   0.554983  -0.029745
    30  H    0.000000  -0.000000   0.379326  -0.026271  -0.029745   0.549025
    31  C    0.000825   0.005390  -0.000024   0.000001   0.000000   0.000074
    32  H    0.000095   0.000570   0.000007  -0.000000  -0.000000  -0.000003
    33  H   -0.000023  -0.000140  -0.000219   0.000003   0.000012   0.000043
    34  H   -0.000171   0.004855  -0.000000  -0.000000   0.000000  -0.000001
    35  C    0.000001   0.000075  -0.019815   0.000825  -0.000219   0.005416
    36  H    0.000003   0.000041   0.001560  -0.000023  -0.000099  -0.000149
    37  H   -0.000000  -0.000003  -0.004581   0.000095   0.000294   0.000570
    38  H   -0.000000  -0.000001   0.001320  -0.000169  -0.000669   0.004816
    39  H   -0.000000   0.000000  -0.061147  -0.005227   0.006388  -0.000195
    40  H    0.002035   0.005585  -0.000000   0.000000  -0.000000  -0.000000
              31         32         33         34         35         36
     1  C   -0.005134  -0.000244  -0.000123   0.010089   0.000072  -0.000147
     2  C   -0.049982   0.005888  -0.003917  -0.004429   0.000384  -0.000006
     3  C   -0.005329   0.000393   0.003245  -0.002076  -0.005246   0.003167
     4  C   -0.000288   0.000010  -0.000014  -0.000078  -0.000289  -0.000004
     5  C    0.000058  -0.000000  -0.000021  -0.000032  -0.000002   0.000013
     6  C   -0.000070   0.000008   0.000001  -0.000415   0.000002   0.000002
     7  H   -0.000343  -0.000067   0.000058   0.000999  -0.000005  -0.000012
     8  C    0.000341  -0.000270   0.000198   0.000317  -0.049914  -0.004155
     9  C   -0.000002  -0.000000   0.000013   0.000002   0.000058  -0.000021
    10  H    0.000000   0.000000  -0.000000  -0.000000  -0.000000  -0.000000
    11  H   -0.000002  -0.000000   0.000000   0.000013   0.000000  -0.000000
    12  C    0.000002   0.000000   0.000001  -0.000000  -0.000072   0.000005
    13  C    0.000073  -0.000002  -0.000142  -0.000001  -0.005146  -0.000140
    14  H   -0.000000   0.000000  -0.000000   0.000000   0.000000  -0.000000
    15  H    0.000000   0.000000  -0.000000  -0.000000  -0.000002   0.000000
    16  H   -0.000005  -0.000000  -0.000012   0.000000  -0.000348   0.000056
    17  N    0.306489  -0.039056  -0.045949  -0.043992   0.007261   0.002416
    18  N    0.007155   0.001117   0.002834  -0.000510   0.306905  -0.046649
    19  C   -0.054719  -0.000027   0.009223  -0.018636  -0.001022  -0.001322
    20  H    0.000750   0.003525  -0.000425  -0.001202  -0.000021   0.000115
    21  C   -0.001020  -0.000030  -0.001335   0.000020  -0.054755   0.009273
    22  H    0.000042   0.000000   0.000051  -0.000000   0.006894  -0.000406
    23  C   -0.019837  -0.004561   0.001559   0.001293  -0.000024  -0.000218
    24  H   -0.000215   0.000293  -0.000100  -0.000661   0.000000   0.000012
    25  H    0.000825   0.000095  -0.000023  -0.000171   0.000001   0.000003
    26  H    0.005390   0.000570  -0.000140   0.004855   0.000075   0.000041
    27  C   -0.000024   0.000007  -0.000219  -0.000000  -0.019815   0.001560
    28  H    0.000001  -0.000000   0.000003  -0.000000   0.000825  -0.000023
    29  H    0.000000  -0.000000   0.000012   0.000000  -0.000219  -0.000099
    30  H    0.000074  -0.000003   0.000043  -0.000001   0.005416  -0.000149
    31  C    5.271444   0.384602   0.448264   0.326429  -0.158910  -0.156740
    32  H    0.384602   0.566879  -0.041462  -0.044185   0.005190   0.002634
    33  H    0.448264  -0.041462   0.686394  -0.021597  -0.156956  -0.053539
    34  H    0.326429  -0.044185  -0.021597   0.650386   0.006684   0.003590
    35  C   -0.158910   0.005190  -0.156956   0.006684   5.271193   0.448551
    36  H   -0.156740   0.002634  -0.053539   0.003590   0.448551   0.686846
    37  H    0.005295  -0.002191   0.002307   0.000264   0.384105  -0.040713
    38  H    0.006657   0.000271   0.003728  -0.000312   0.326805  -0.022034
    39  H   -0.000021  -0.000017   0.000115   0.000002   0.000761  -0.000424
    40  H    0.006894  -0.000154  -0.000400  -0.000044   0.000042   0.000049
              37         38         39         40
     1  C   -0.000002  -0.000001  -0.000000   0.006624
     2  C   -0.000267   0.000314  -0.000048  -0.005114
     3  C    0.000388  -0.002075   0.000160  -0.000354
     4  C    0.000010  -0.000077   0.000003  -0.000077
     5  C   -0.000000   0.000002  -0.000000  -0.000044
     6  C    0.000000  -0.000000   0.000000  -0.000210
     7  H   -0.000000   0.000000   0.000000  -0.002437
     8  C    0.005891  -0.004483   0.006240   0.000009
     9  C   -0.000000  -0.000032   0.000000   0.000001
    10  H    0.000000   0.000000   0.000000  -0.000000
    11  H    0.000000  -0.000000   0.000000   0.000009
    12  C    0.000008  -0.000418  -0.000004  -0.000000
    13  C   -0.000243   0.010139   0.000148   0.000001
    14  H    0.000000  -0.000000  -0.000000  -0.000000
    15  H   -0.000000   0.000013  -0.000000  -0.000000
    16  H   -0.000067   0.001011   0.000083  -0.000000
    17  N    0.001113  -0.000514   0.000677  -0.041035
    18  N   -0.038980  -0.044102  -0.054783  -0.000168
    19  C   -0.000029   0.000020   0.000001   0.382752
    20  H   -0.000017   0.000002  -0.000032  -0.030756
    21  C   -0.000061  -0.018609   0.389286   0.000008
    22  H   -0.000155  -0.000043  -0.030778  -0.000002
    23  C    0.000007  -0.000000   0.000001  -0.045435
    24  H   -0.000000   0.000000  -0.000000  -0.009921
    25  H   -0.000000  -0.000000  -0.000000   0.002035
    26  H   -0.000003  -0.000001   0.000000   0.005585
    27  C   -0.004581   0.001320  -0.061147  -0.000000
    28  H    0.000095  -0.000169  -0.005227   0.000000
    29  H    0.000294  -0.000669   0.006388  -0.000000
    30  H    0.000570   0.004816  -0.000195  -0.000000
    31  C    0.005295   0.006657  -0.000021   0.006894
    32  H   -0.002191   0.000271  -0.000017  -0.000154
    33  H    0.002307   0.003728   0.000115  -0.000400
    34  H    0.000264  -0.000312   0.000002  -0.000044
    35  C    0.384105   0.326805   0.000761   0.000042
    36  H   -0.040713  -0.022034  -0.000424   0.000049
    37  H    0.566701  -0.044077   0.003517   0.000000
    38  H   -0.044077   0.650345  -0.001203  -0.000000
    39  H    0.003517  -0.001203   0.604041  -0.000000
    40  H    0.000000  -0.000000  -0.000000   0.574582
 Mulliken charges:
               1
     1  C   -0.175914
     2  C    0.142253
     3  C    0.138619
     4  C    0.130052
     5  C   -0.214248
     6  C   -0.155237
     7  H    0.125294
     8  C    0.141748
     9  C   -0.214263
    10  H    0.132644
    11  H    0.134558
    12  C   -0.155192
    13  C   -0.175833
    14  H    0.132671
    15  H    0.134561
    16  H    0.125399
    17  N   -0.416761
    18  N   -0.416639
    19  C   -0.144490
    20  H    0.142461
    21  C   -0.144358
    22  H    0.157472
    23  C   -0.485415
    24  H    0.164854
    25  H    0.149904
    26  H    0.163993
    27  C   -0.485414
    28  H    0.149906
    29  H    0.164834
    30  H    0.163978
    31  C   -0.318145
    32  H    0.160789
    33  H    0.168323
    34  H    0.133398
    35  C   -0.318479
    36  H    0.168467
    37  H    0.160819
    38  H    0.133378
    39  H    0.142455
    40  H    0.157559
 Sum of Mulliken charges =  -0.00000
 Mulliken charges with hydrogens summed into heavy atoms:
               1
     1  C   -0.050620
     2  C    0.142253
     3  C    0.138619
     4  C    0.130052
     5  C   -0.081604
     6  C   -0.020679
     8  C    0.141748
     9  C   -0.081592
    12  C   -0.020631
    13  C   -0.050434
    17  N   -0.416761
    18  N   -0.416639
    19  C    0.155530
    21  C    0.155569
    23  C   -0.006665
    27  C   -0.006696
    31  C    0.144365
    35  C    0.144185
 Electronic spatial extent (au):  <R**2>=           4407.4111
 Charge=             -0.0000 electrons
 Dipole moment (field-independent basis, Debye):
    X=              0.0001    Y=             -0.9848    Z=              1.0653  Tot=              1.4507
 Quadrupole moment (field-independent basis, Debye-Ang):
   XX=           -100.2365   YY=           -101.3615   ZZ=           -110.9376
   XY=              0.0057   XZ=              0.0075   YZ=             -1.5308
 Traceless Quadrupole moment (field-independent basis, Debye-Ang):
   XX=              3.9420   YY=              2.8171   ZZ=             -6.7591
   XY=              0.0057   XZ=              0.0075   YZ=             -1.5308
 Octapole moment (field-independent basis, Debye-Ang**2):
  XXX=             -0.0264  YYY=              2.9120  ZZZ=              0.7431  XYY=             -0.0099
  XXY=              2.5761  XXZ=             -9.4429  XZZ=              0.0186  YZZ=            -15.0772
  YYZ=              4.7509  XYZ=              0.0192
 Hexadecapole moment (field-independent basis, Debye-Ang**3):
 XXXX=          -3130.6661 YYYY=          -2301.6324 ZZZZ=           -363.9325 XXXY=              0.0272
 XXXZ=              0.1375 YYYX=             -0.0026 YYYZ=              9.5311 ZZZX=             -0.0633
 ZZZY=             -3.2987 XXYY=           -900.7642 XXZZ=           -610.2019 YYZZ=           -488.6314
 XXYZ=             19.2872 YYXZ=              0.0983 ZZXY=             -0.0095
 N-N= 1.391843340730D+03 E-N=-4.481585193601D+03  KE= 7.271583962823D+02
 D1PCM: PCM CHGder 1st derivatives, ID1Alg=3 FixD1E=F DoIter=F DoCFld=F I1PDM=0.
 Calling FoFJK, ICntrl=      2127 FMM=F ISym2X=0 I1Cent= 0 IOpClX= 0 NMat=1 NMatS=1 NMatT=0.
 ***** Axes restored to original set *****
 -------------------------------------------------------------------
 Center     Atomic                   Forces (Hartrees/Bohr)
 Number     Number              X              Y              Z
 -------------------------------------------------------------------
      1        6          -0.000657966   -0.018431220   -0.001529871
      2        6          -0.022474483    0.034811467    0.000345433
      3        6          -0.020974453   -0.000207246    0.003303102
      4        6           0.024522593   -0.000040048    0.003678240
      5        6           0.003000280    0.001140052    0.000317351
      6        6          -0.007685138    0.005987777   -0.002350325
      7        1           0.001141374    0.005517494    0.001355029
      8        6          -0.022150692   -0.035011693   -0.001957060
      9        6           0.003072445   -0.001131631    0.000239773
     10        1           0.012245394   -0.002298801    0.001779781
     11        1           0.005386485    0.011663640    0.001397785
[...]
 8893,0.02774007,0.00002736,0.00001164,-0.00003444,-0.00000005,0.000006
 05,0.00001480,-0.00337543,-0.00243907,0.00174288,0.00017211,0.00007298
 ,0.00134822,-0.00001092,0.00000086,0.00000348,0.00000081,-0.00000185,0
 .00000064,0.00000196,-0.00000118,-0.00000586,0.00000926,-0.00001237,-0
 .00000910,-0.00022313,-0.00063490,0.00007706,0.00012716,0.00039859,-0.
 00000054,-0.00000051,0.00003614,0.00000197,0.00031634,0.00050722,-0.00
 004433,0.00012399,-0.00002269,0.00036749,0.00006822,-0.00004445,0.0000
 3212,-0.00029540,-0.00010361,-0.00000764,-0.00000824,0.00007771,-0.000
 09402,-0.01284012,-0.06164797,-0.05540975,0.01591381,0.06616337,0.0000
 1979,0.00008054,-0.00004163,-0.00005393,-0.00027452,0.00009076,0.00046
 142,0.00054878,0.00002263,-0.00014990,0.00004002,-0.00008149,0.0000235
 1,-0.00008068,0.00001343,-0.00010907,0.00001013,0.00003766,0.00000206,
 -0.00000145,-0.00000868,-0.00313298,-0.00018996,-0.00001467,0.00014290
 ,-0.00010058,0.00005177,0.00000510,-0.00000513,-0.00001323,0.00000079,
 0.00000490,-0.00000163,-0.00007853,-0.00011351,0.00019299,0.00007124,0
 .00009001,0.00066055,-0.00001195,-0.00002066,0.00000789,0.00002636,-0.
 00002250,-0.00001298,-0.00001532,-0.00059135,0.00000171,0.00009473,0.0
 0016204,0.00026241,-0.00227047,0.00235364,-0.02172692,-0.00004505,-0.0
 0004522,0.00001423,0.00001450,-0.00001380,-0.00001899,0.00386991,0.002
 10929,-0.00032339,-0.00022242,-0.00016717,-0.00111110,0.00001024,-0.00
 000396,0.00000187,0.00000220,0.00000476,0.00000002,-0.00000160,0.00000
 141,0.00000206,-0.00000913,0.00001272,0.00001062,-0.00017542,0.0002740
 6,0.00016373,-0.00004513,-0.00010614,-0.00006627,0.00004276,-0.0000253
 6,-0.00000990,0.00002804,-0.00005812,0.00007378,0.00001764,0.00015031,
 -0.00020088,-0.00007304,0.00001898,-0.00002231,0.00011215,0.00015324,-
 0.00000697,-0.00000756,-0.00001476,0.00003363,-0.05402786,-0.04957074,
 -0.29013421,0.05900381,0.04905513,0.31940514,0.00019201,-0.00007205,-0
 .00004333,-0.00044788,0.00023194,0.00009220,-0.00062520,0.00028680,0.0
 0005111,-0.00007792,-0.00012323,-0.00015100,0.00002140,-0.00008234,0.0
 0002898,-0.00011785,0.00003012,-0.00000572,-0.00000430,-0.00003961,0.0
 0000980,0.00119703,0.00014182,0.00339391,-0.00027774,-0.00013730,0.000
 08536,-0.00003465,-0.00001958,0.00001689,-0.00000640,-0.00002049,0.000
 01911,0.00034263,0.00003475,0.00018619,-0.00015620,-0.00005180,-0.0003
 4688,-0.00003695,-0.00003867,-0.00001466,-0.00007242,0.00004115,-0.000
 01120,0.00001518,-0.00028158,-0.00009272,0.00041760,-0.00015240,-0.000
 08815,-0.02042253,-0.00603166,-0.00038207,-0.00013418,0.00003891,-0.00
 013644,0.00008392,-0.00001758,0.00002007,0.00039220,0.00031356,-0.0020
 2820,0.00065953,-0.00013979,-0.00010400,0.00003071,-0.00002258,0.00003
 929,0.00000910,0.00002400,0.00000280,0.00000829,-0.00002426,0.00000239
 ,0.00000136,-0.00000324,-0.00001193,-0.00011930,0.00014291,0.00039835,
 0.00003701,0.00005796,0.00003808,0.00011212,-0.00000030,-0.00009655,-0
 .00016660,0.00016744,0.00006356,-0.00032970,-0.00006792,0.00014999,0.0
 0016562,-0.00005383,-0.00000927,-0.00002750,0.00001421,0.00007334,0.00
 008899,-0.00003052,-0.00001385,-0.29697961,0.03696241,-0.03731636,-0.0
 0397423,0.00103698,-0.00114155,0.32715657,0.00011749,-0.00005505,-0.00
 001376,-0.00028414,0.00021888,0.00004305,-0.00100803,0.00021192,-0.000
 12032,-0.00003385,-0.00021888,-0.00011973,-0.00003083,-0.00000692,-0.0
 0000608,-0.00003323,0.00002820,-0.00002006,-0.00000469,-0.00001633,0.0
 0000777,-0.00068012,-0.00173329,0.00386661,-0.00013626,-0.00006747,0.0
 0006142,-0.00002262,-0.00002051,0.00001136,0.00000010,-0.00000851,0.00
 000771,0.00018204,0.00033732,-0.00016351,-0.00012930,-0.00086708,0.000
 26046,0.00001026,0.00002787,-0.00001927,-0.00004326,0.00000993,-0.0000
 0558,0.00011902,0.00055675,-0.00032359,0.00023809,-0.00001049,-0.00003
 393,-0.02930037,-0.00115537,-0.00186296,-0.00003350,-0.00002804,-0.000
 03981,0.00003693,-0.00001217,0.00002070,-0.00098488,0.00057019,-0.0010
 2232,-0.00002684,-0.00003094,-0.00027223,0.00000933,-0.00000393,0.0000
 1522,0.00000420,0.00001236,0.00000234,0.00000148,-0.00000441,-0.000003
 39,0.00000420,-0.00000759,-0.00000625,0.00033954,0.00003198,0.00010072
 ,-0.00004949,0.00006907,0.00005754,-0.00007646,-0.00014765,0.00000400,
 0.00007179,-0.00014971,0.00001153,-0.00028955,0.00001936,0.00011420,0.
 00018557,-0.00011212,-0.00000576,-0.00005551,0.00001352,0.00002261,0.0
 0010655,0.00003982,-0.00002934,0.04215002,-0.05517211,0.00572034,-0.00
 699175,0.00059371,-0.00067359,-0.03487674,0.06103974,0.00013022,0.0000
 7673,-0.00005569,0.00013567,-0.00027934,0.00010140,0.00099206,0.000384
 08,0.00016346,-0.00029817,0.00042612,-0.00005257,0.00004715,-0.0001179
 5,0.00004395,-0.00010956,0.00005653,-0.00000338,0.00000295,0.00000224,
 -0.00000995,0.00033787,0.00161856,-0.00279178,0.00000200,-0.00038064,0
 .00009929,0.00001054,0.00001517,-0.00000877,-0.00000082,0.00000303,-0.
 00000187,0.00036134,0.00008174,0.00020411,-0.00076507,0.00063463,0.000
 51643,-0.00000659,-0.00002845,0.00000162,0.00001857,0.00001955,0.00003
 156,-0.00032176,-0.00058285,-0.00021675,-0.00005132,-0.00003749,-0.000
 10561,0.02326373,0.00151098,0.00112201,0.00001756,0.00001509,0.0000222
 0,-0.00001434,0.00001279,0.00000701,0.00271904,-0.00028017,0.00051505,
 0.00008736,-0.00008740,0.00028186,-0.00001270,0.00000551,-0.00000336,0
 .00000082,-0.00000407,-0.00000183,-0.00000013,0.00000321,-0.00000057,0
 .00000258,-0.00000653,-0.00000608,-0.00026128,0.00011596,-0.00020223,-
 0.00001246,-0.00003999,-0.00003449,-0.00008033,0.00007033,0.00010301,0
 .00003828,-0.00008076,0.00000056,-0.00012557,-0.00000438,0.00003863,0.
 00007492,-0.00004567,0.00005066,-0.00003884,0.00000643,-0.00000210,0.0
 0003126,0.00000622,-0.00001304,-0.04245612,0.00474711,-0.05748569,-0.0
 2986306,0.00544393,-0.00134802,0.03856831,-0.01124265,0.05739105,-0.00
 010803,-0.00004754,0.00000474,0.00009947,0.00032551,-0.00014674,-0.000
 76689,-0.00014507,0.00061402,0.00030878,-0.00031766,0.00037780,-0.0000
 7623,0.00007605,-0.00009271,0.00008769,-0.00003974,0.00002401,-0.00000
 249,-0.00000624,0.00000599,0.00268800,-0.00095259,0.00009312,0.0001115
 8,0.00041906,-0.00022453,-0.00002079,-0.00001221,0.00000521,0.00000079
 ,0.00000167,0.00000526,-0.00042416,0.00011545,0.00064073,0.00041993,0.
 00029760,-0.00090949,-0.00000998,-0.00006593,-0.00012533,-0.00004512,-
 0.00000432,-0.00002833,-0.00207226,-0.00083618,-0.00104680,0.00008121,
 -0.00035678,-0.00000770,0.00438842,-0.02083994,-0.00308655,-0.00011867
 ,0.00000796,-0.00009094,0.00003706,-0.00000240,0.00001637,0.00000736,0
 .00016658,-0.00114931,0.00011486,-0.00009620,0.00010905,0.00002979,-0.
 00001680,0.00002830,0.00000054,0.00000488,-0.00000022,0.00000345,-0.00
 001582,-0.00000135,-0.00000047,-0.00000473,-0.00000701,0.00033112,0.00
 061162,0.00019286,-0.00015426,-0.00010865,0.00000313,-0.00011449,0.000
 04269,0.00014189,-0.00001221,-0.00019205,0.00006483,-0.00020954,0.0000
 5701,0.00015478,0.00009449,-0.00002703,0.00000307,-0.00001635,0.000046
 39,0.00004174,0.00006272,-0.00002087,0.00000140,-0.06667155,0.05429302
 ,0.01365334,0.00184985,-0.00753198,-0.00233259,-0.00759406,0.03096820,
 0.00813870,0.06780153,0.00002097,-0.00011481,0.00015443,0.00049241,0.0
 0047816,-0.00017849,-0.00126159,-0.00021584,0.00003403,0.00005450,-0.0
 0002667,0.00018497,-0.00012149,0.00003457,0.00001289,0.00006505,0.0000
 1833,-0.00006285,0.00000168,-0.00002646,-0.00000124,0.00761622,0.00046
 051,0.00172358,-0.00032777,-0.00026236,0.00001806,-0.00005212,-0.00001
 889,0.00003025,-0.00001996,-0.00003252,0.00001514,0.00051877,0.0005995
 0,-0.00048927,-0.00136475,-0.00024633,-0.00067416,-0.00000134,0.000061
 64,0.00000300,-0.00012095,0.00006363,0.00002954,-0.00011484,0.00085893
 ,-0.00039534,-0.00017521,-0.00091287,0.00011253,-0.00978509,-0.0275021
 5,0.00985903,-0.00024478,0.00010045,-0.00024987,0.00004675,-0.00000517
 ,0.00001009,-0.00136364,-0.00090960,-0.00451408,-0.00004090,0.00005811
 ,0.00059535,0.00006177,-0.00005466,0.00006779,-0.00000670,0.00000819,-
 0.00000371,0.00002187,-0.00005514,0.00000827,-0.00000251,0.00000470,-0
 .00001262,-0.00023426,-0.00038376,0.00029284,0.00015310,0.00069634,0.0
 0017059,-0.00005316,-0.00006094,-0.00001423,0.00061041,0.00093123,-0.0
 0023529,-0.00009840,0.00035939,0.00027977,0.00000752,0.00002774,-0.000
 00224,0.00004032,0.00010581,0.00014102,0.00001955,-0.00013574,0.000009
 97,0.05527338,-0.25772271,-0.05213563,0.00275066,-0.00531306,-0.002856
 05,0.00296770,-0.00396454,-0.00233265,-0.05576015,0.29310211,-0.000066
 05,0.00004293,-0.00000682,0.00005025,-0.00024716,0.00005909,0.00054030
 ,0.00011267,-0.00026723,-0.00004302,0.00006732,-0.00014214,0.00003131,
 0.00000957,0.00000176,0.00002299,-0.00000163,0.00000575,0.00000263,0.0
 0002219,-0.00000477,-0.00315797,0.00021155,0.00001433,0.00018878,0.000
 02943,0.00001660,0.00002623,0.00000922,-0.00001515,0.00000429,0.000011
 12,-0.00001005,-0.00011192,0.00015043,-0.00009282,0.00053490,-0.001421
 79,0.00047030,0.00003436,0.00003308,0.00000467,0.00003305,-0.00004861,
 -0.00001958,-0.00016522,0.00024225,0.00024069,-0.00008663,0.00026575,0
 .00006892,-0.00180768,0.02410359,0.00352729,0.00004973,-0.00004642,0.0
 0011815,-0.00003491,0.00000849,-0.00001531,0.00001508,0.00190036,0.002
 79338,0.00007213,-0.00009832,-0.00031588,-0.00001724,0.00002049,-0.000
 03042,-0.00000038,-0.00000661,-0.00000035,-0.00000718,0.00002001,0.000
 00008,-0.00000529,0.00000416,0.00000928,0.00008527,-0.00085956,-0.0003
 6644,-0.00005624,0.00006488,0.00041580,0.00000857,-0.00007099,-0.00009
 192,0.00009280,-0.00019666,-0.00172186,0.00007230,0.00008722,-0.000187
 24,-0.00008325,0.00003128,-0.00001935,0.00009477,0.00007949,-0.0000983
 2,-0.00002388,0.00002374,0.00002901,0.01297178,-0.05028491,-0.06514567
 ,0.00839960,-0.02980293,-0.00618346,-0.00207396,0.00546101,0.00166520,
 -0.01554211,0.05003879,0.06547560,0.00030696,0.00001570,-0.00017290,-0
 .00082865,0.00032724,0.00013245,0.00012110,0.00012094,0.00007534,0.000
 10793,0.00002217,-0.00004541,0.00007597,-0.00012500,0.00005504,-0.0001
 7700,0.00003619,-0.00003113,-0.00001042,-0.00004868,0.00002786,0.00200
 771,0.00283897,-0.00160586,-0.00013502,-0.00006456,-0.00002352,-0.0000
 2745,-0.00000594,0.00002320,-0.00000653,-0.00001298,0.00001924,0.00012
 574,0.00025958,-0.00003611,-0.00083071,-0.00057710,-0.00039899,-0.0000
 3179,-0.00001283,0.00000272,-0.00011769,0.00004714,0.00002851,0.000083
 64,0.00006707,-0.00002996,0.00080497,0.00005183,0.00010240,-0.01309125
 ,-0.00262607,-0.00698543,-0.00045077,-0.00001685,-0.00015637,0.0003411
 6,-0.00009836,-0.00001040,-0.29397029,0.04504604,0.00680017,-0.0128948
 8,0.00257999,0.00064740,0.00016448,-0.00004530,0.00006395,0.00002063,0
 .00008223,0.00001965,0.00000390,-0.00003557,0.00000126,-0.00000972,0.0
 0000943,0.00000040,-0.00596994,0.00106751,0.00113673,0.00013159,0.0003
 2399,0.00057586,0.00140410,0.00097766,0.00077216,0.00069753,0.00031528
 ,-0.00021513,-0.00025194,-0.00024310,-0.00006779,0.00010834,-0.0000151
 4,-0.00013922,0.00007977,0.00002084,0.00011275,0.00007517,-0.00004255,
 -0.00000648,0.00016597,-0.00092827,0.00161163,0.00064908,-0.00006051,-
 0.00003840,0.00068019,0.00054281,-0.00057109,-0.00010965,0.00043478,-0
 .00005396,0.32079908,0.00023935,0.00005312,-0.00019886,-0.00057399,0.0
 0016786,0.00013184,-0.00007839,0.00005537,-0.00014978,0.00016729,0.000
 02077,-0.00005830,-0.00000126,-0.00013084,0.00008282,-0.00015808,0.000
 07039,-0.00003076,-0.00000647,-0.00001892,0.00001326,-0.00028241,0.000
 37167,-0.00014118,-0.00003327,-0.00001790,0.00000124,-0.00001246,-0.00
 000516,0.00000884,-0.00000302,-0.00000326,0.00000593,0.00000942,0.0000
 6608,-0.00000908,-0.00017916,-0.00003575,-0.00014788,-0.00001202,-0.00
 000148,-0.00000413,-0.00002538,0.00002242,0.00001480,0.00002367,0.0000
 0501,-0.00004182,0.00060861,0.00050342,0.00027996,-0.00159280,0.001409
 59,0.00146019,-0.00019528,-0.00016659,-0.00000593,0.00013853,-0.000384
 61,-0.00003275,0.04472562,-0.06035364,-0.00019381,-0.02408350,0.006035
 31,-0.00078207,0.00008692,-0.00003255,0.00003280,0.,0.00004427,0.00001
 227,-0.00000262,-0.00001006,-0.00000397,-0.00000346,0.00000520,0.00000
 678,0.03036549,-0.00699424,-0.00262642,-0.00054908,0.00103225,0.000152
 98,0.00107462,-0.00485487,-0.00356525,-0.00028360,0.00124275,0.0010908
 4,-0.00006063,-0.00006972,-0.00011173,0.00003468,-0.00010662,-0.000146
 93,0.00000078,-0.00000274,0.00002811,0.00003579,0.00003249,-0.00001731
 ,0.00115375,-0.00029295,0.00021776,-0.00006029,0.00000187,-0.00010576,
 -0.00020111,0.00000569,0.00028536,-0.00003578,0.00001282,0.00003890,-0
 .05020928,0.06233191,0.00003987,-0.00007036,0.00006979,-0.00010756,0.0
 0009209,-0.00003777,0.00006127,0.00017260,0.00004040,-0.00002567,-0.00
 004075,0.00004296,0.00001180,0.00002885,-0.00000684,-0.00001239,-0.000
 03075,0.00001813,-0.00000613,-0.00002230,0.00000371,-0.00061947,0.0039
 3932,-0.00485869,-0.00010830,0.00001709,-0.00003416,-0.00002202,-0.000
 01351,0.00000472,-0.00000027,-0.00001168,0.00000730,-0.00014394,0.0004
 7522,-0.00001530,-0.00186420,-0.00079525,-0.00009713,-0.00002925,-0.00
 003077,-0.00000620,-0.00019703,0.00002815,-0.00000941,0.00007371,-0.00
 002943,-0.00010031,0.00011767,-0.00002579,-0.00003435,-0.03749094,0.00
 127824,-0.01093603,0.00000749,-0.00003241,-0.00004787,-0.00001957,-0.0
 0000361,0.00006242,0.01317954,0.00130312,-0.04842510,0.01490644,-0.004
 10966,0.00079920,-0.00001446,-0.00000488,0.00000596,0.00000251,-0.0000
 0631,-0.00000439,0.00000266,-0.00000079,0.00000089,0.00000162,-0.00000
 722,-0.00000738,0.01615677,-0.00327294,0.00048097,-0.00021711,0.000725
 71,0.00034344,0.00025114,-0.00351241,-0.00098278,-0.00073976,0.0001880
 2,0.00038758,-0.00021341,0.00007658,0.00005514,0.00009864,-0.00012315,
 -0.00013143,-0.00000229,0.00001192,0.00005482,0.00008473,-0.00001851,0
 .00000563,-0.00276568,-0.00106455,0.00125829,-0.00011254,-0.00019098,0
 .00024818,0.00083430,0.00020916,-0.00000307,0.00047215,0.00035016,-0.0
 0019326,-0.00162593,0.00450964,0.06204508,-0.00077014,-0.00043791,-0.0
 0019299,0.00124614,-0.00057355,-0.00171343,0.00002997,0.00030996,-0.00
 030547,0.00026113,0.00023559,-0.00019477,0.00007419,-0.00048862,0.0002
 5439,-0.00071283,0.00042982,0.00017582,-0.00191473,-0.00047608,-0.0011
 7556,0.00023066,-0.00020766,0.00008300,-0.00000226,-0.00017470,0.00013
 450,0.00001715,-0.00002815,-0.00001760,0.00002905,0.00001207,-0.000020
 10,0.00022484,0.00009370,-0.00002823,-0.00025666,0.00007738,-0.0000678
 4,0.00001430,-0.00000301,0.00001221,0.00000347,-0.00000727,0.00000473,
 -0.00000029,-0.00001716,-0.00000350,0.00556944,0.00149844,-0.02019882,
 -0.00011613,0.00002235,-0.00009450,-0.09303556,0.00444393,0.09997735,-
 0.01026750,0.00178417,0.02729947,-0.00005899,-0.00007515,0.00015978,0.
 00013644,0.00001412,-0.00000221,0.00007422,0.00015740,0.00016825,0.000
 20437,0.00049424,-0.00039479,0.00006224,0.00040967,0.00014413,0.001106
 17,0.00035154,-0.00033237,0.00002245,0.00001374,-0.00002747,-0.0000033
 7,-0.00002371,-0.00002550,-0.00001066,0.00000926,0.00000383,-0.0000019
 4,0.00002076,0.00000138,-0.00215956,0.00207491,-0.00124627,0.00045989,
 0.00012074,0.00002822,0.00056119,0.00019584,-0.00090474,0.00000527,-0.
 00006438,0.00009628,-0.00003735,0.00001138,-0.00004507,0.00000740,-0.0
 0000032,-0.00000728,-0.00000625,0.00000382,0.00000826,0.00000856,-0.00
 000778,0.00000577,-0.00004129,-0.00002117,0.00003562,0.09904694,-0.000
 18439,0.00064146,-0.00048250,-0.00149830,0.00056603,0.00079845,0.00001
 012,-0.00034137,0.00006148,-0.00012880,-0.00008150,0.00005248,0.000064
 48,0.00011177,-0.00007308,0.00012168,-0.00015468,0.00001372,-0.0005875
 7,-0.00011398,-0.00023908,0.00003965,0.00018195,-0.00001043,-0.0000128
 7,0.00004349,-0.00002380,0.00001659,-0.00001413,0.00000839,0.00000335,
 0.00002176,0.00001351,-0.00005241,-0.00003023,0.00000604,0.00003576,-0
 .00004950,0.00000889,0.00000546,0.00000121,-0.00000092,0.00000075,-0.0
 0000375,0.00000278,0.00000189,-0.00000317,0.00001048,-0.00785968,-0.00
 227166,0.02351882,0.00002362,-0.00008344,-0.00018061,0.00751778,-0.050
 33446,-0.01739179,-0.00439991,0.00076873,0.01135175,-0.00010941,-0.000
 16155,0.00035107,0.00015552,-0.00003044,0.00001347,0.01441474,-0.00321
 310,-0.03011361,-0.00051754,0.00125054,0.00041725,0.00004218,0.0014139
 5,0.00057356,-0.00005965,-0.00640599,-0.00202185,0.00003887,0.00004655
 ,-0.00007718,-0.00000617,-0.00002852,-0.00002295,-0.00000842,0.0000020
 5,0.00000780,-0.00000298,0.00003951,0.00001214,0.00313603,-0.00224851,
 0.00163870,0.00014639,0.00001816,-0.00028108,-0.00019001,0.00013052,0.
 00135921,0.00007038,0.00012889,0.00039489,-0.00002746,0.00003328,-0.00
 002890,-0.00000103,0.00002250,-0.00002896,-0.00000408,0.00000680,0.000
 00968,0.00000296,-0.00001792,-0.00000433,-0.00001931,-0.00000839,0.000
 01215,-0.01017822,0.06016715,0.00024272,0.00042292,0.00092191,0.003332
 78,-0.00030151,-0.00006939,-0.00050573,0.00063165,-0.00001871,0.000238
 43,0.00009176,-0.00013507,-0.00004392,-0.00022180,0.00008279,-0.000063
 53,-0.00018016,0.00033028,-0.00017427,-0.00089231,0.00018008,0.0001607
 4,-0.00028364,0.00015315,-0.00005299,-0.00010461,0.00001560,0.00002855
 ,-0.00004542,0.00000682,-0.00001079,0.00000279,-0.00000399,0.00015552,
 0.00000840,0.00004009,-0.00008858,0.00008627,-0.00005906,0.00000014,-0
 .00000610,-0.00001162,-0.00000037,0.00000134,0.00000272,-0.00000304,-0
 .00001168,-0.00000607,0.00598621,0.00361009,-0.02344883,-0.00016569,0.
 00016916,0.00017834,0.09130035,-0.01302234,-0.26978810,0.00018257,0.00
 042911,0.00344439,0.00004712,0.00014041,-0.00020904,-0.00005627,0.0000
 5572,-0.00000360,0.00469450,-0.00164783,-0.00832941,-0.00028988,0.0002
 9802,0.00011508,0.00010333,-0.00016685,0.00077443,-0.00006840,-0.00177
 370,0.00092995,-0.00001481,-0.00001716,0.00003365,0.00000847,0.0000193
 8,0.00002009,0.00000270,0.00000200,-0.00000755,-0.00000323,-0.00002553
 ,-0.00000281,-0.00400959,0.00277234,-0.00042485,0.00013950,-0.00007199
 ,0.00025031,0.00043147,-0.00006884,-0.00122452,0.00006023,-0.00019589,
 0.00012648,0.00002208,-0.00002047,-0.00000222,0.00000982,-0.00002930,0
 .00003166,-0.00000620,-0.00001358,-0.00001222,-0.00000080,0.00001559,0
 .00001216,0.00000538,-0.00000060,-0.00000314,-0.10159451,0.01034436,0.
 29611021\\0.00001336,0.00000633,-0.00000329,0.00000532,-0.00001541,0.0
 0001532,-0.00001993,0.00000897,-0.00000349,0.00001546,0.00000779,-0.00
 000526,-0.00000049,-0.00001144,0.00001003,-0.00001506,0.00000962,-0.00
 000409,-0.00000387,0.00000093,0.00000132,0.00001431,0.00000646,-0.0000
 0351,-0.00000195,0.00000172,0.00000178,-0.00000087,0.00000337,0.000001
 30,0.00000020,0.00000077,0.00000148,0.00000064,-0.00000034,0.00000211,
 -0.00000236,-0.00000322,0.00000307,0.00000018,0.00000137,0.00000254,0.
 00000207,0.00000265,0.00000148,0.00000209,0.00000179,-0.00000040,0.000
 00905,-0.00001953,-0.00000032,-0.00001561,0.00000042,0.00000207,-0.000
 01315,0.00000611,-0.00000250,-0.00000019,-0.00000089,-0.00000147,0.000
 00426,0.00000147,0.00000441,-0.00000009,0.00000130,0.00000084,-0.00000
 045,0.00000286,-0.00000163,-0.00000164,-0.00000048,-0.00000111,-0.0000
 0096,-0.00000196,-0.00000179,-0.00000200,-0.00000099,-0.00000421,0.000
 00440,-0.00000435,-0.00000306,0.00000236,0.00000008,0.00000133,0.00000
 119,0.00000088,0.00000131,0.00000200,-0.00000035,0.00000123,0.00000249
 ,0.00000119,-0.00000597,-0.00000378,-0.00000093,-0.00000146,0.00000083
 ,-0.00000131,-0.00000371,-0.00000265,-0.00000170,0.00000321,-0.0000002
 7,0.00000535,-0.00000838,0.00000234,0.00000028,-0.00000018,-0.00000003
 ,-0.00000246,-0.00000119,-0.00000119,-0.00000395,-0.00000037,0.0000012
 5,-0.00000269,-0.00000009,0.00000271,0.00000030,0.00000266\\\@
 The archive entry for this job was punched.


 HE WHO LAUGHS LAST PROBABLY DIDN'T GET THE JOKE.
 Job cpu time:       0 days  2 hours  0 minutes 26.8 seconds.
 Elapsed time:       0 days  0 hours 14 minutes 23.4 seconds.
 File lengths (MBytes):  RWF=    594 Int=      0 D2E=      0 Chk=     20 Scr=      1
 Normal termination of Gaussian 16 at Mon Oct 25 05:40:11 2021.
