 Entering Gaussian System, Link 0=/home/rong/g16/g16
 Input=/home/rong/g16/learning/naphthaleneNPhCHCH3.gjf
 Output=/home/rong/g16/learning/naphthaleneNPhCHCH3.log
 Initial command:
 /home/rong/g16/l1.exe "/tmp/Gau-284913.inp" -scrdir="/tmp/"
 Entering Link 1 = /home/rong/g16/l1.exe PID=    284915.
  
 Copyright (c) 1988-2019, Gaussian, Inc.  All Rights Reserved.
  
 This is part of the Gaussian(R) 16 program.  It is based on
 the Gaussian(R) 09 system (copyright 2009, Gaussian, Inc.),
 the Gaussian(R) 03 system (copyright 2003, Gaussian, Inc.),
 the Gaussian(R) 98 system (copyright 1998, Gaussian, Inc.),
 the Gaussian(R) 94 system (copyright 1995, Gaussian, Inc.),
 the Gaussian 92(TM) system (copyright 1992, Gaussian, Inc.),
 the Gaussian 90(TM) system (copyright 1990, Gaussian, Inc.),
 the Gaussian 88(TM) system (copyright 1988, Gaussian, Inc.),
 the Gaussian 86(TM) system (copyright 1986, Carnegie Mellon
 University), and the Gaussian 82(TM) system (copyright 1983,
 Carnegie Mellon University). Gaussian is a federally registered
 trademark of Gaussian, Inc.
  
 This software contains proprietary and confidential information,
 including trade secrets, belonging to Gaussian, Inc.
  
 This software is provided under written license and may be
 used, copied, transmitted, or stored only in accord with that
 written license.
  
 The following legend is applicable only to US Government
 contracts under FAR:
  
                    RESTRICTED RIGHTS LEGEND
  
 Use, reproduction and disclosure by the US Government is
 subject to restrictions as set forth in subparagraphs (a)
 and (c) of the Commercial Computer Software - Restricted
 Rights clause in FAR 52.227-19.
  
 Gaussian, Inc.
 340 Quinnipiac St., Bldg. 40, Wallingford CT 06492
  
  
 ---------------------------------------------------------------
 Warning -- This program may not be used in any manner that
 competes with the business of Gaussian, Inc. or will provide
 assistance to any competitor of Gaussian, Inc.  The licensee
 of this program is prohibited from giving any competitor of
 Gaussian, Inc. access to this program.  By using this program,
 the user acknowledges that Gaussian, Inc. is engaged in the
 business of creating and licensing software in the field of
 computational chemistry and represents and warrants to the
 licensee that it is not a competitor of Gaussian, Inc. and that
 it will not use this program in any manner prohibited above.
 ---------------------------------------------------------------
  

 Cite this work as:
 Gaussian 16, Revision C.01,
 M. J. Frisch, G. W. Trucks, H. B. Schlegel, G. E. Scuseria, 
 M. A. Robb, J. R. Cheeseman, G. Scalmani, V. Barone, 
 G. A. Petersson, H. Nakatsuji, X. Li, M. Caricato, A. V. Marenich, 
 J. Bloino, B. G. Janesko, R. Gomperts, B. Mennucci, H. P. Hratchian, 
 J. V. Ortiz, A. F. Izmaylov, J. L. Sonnenberg, D. Williams-Young, 
 F. Ding, F. Lipparini, F. Egidi, J. Goings, B. Peng, A. Petrone, 
 T. Henderson, D. Ranasinghe, V. G. Zakrzewski, J. Gao, N. Rega, 
 G. Zheng, W. Liang, M. Hada, M. Ehara, K. Toyota, R. Fukuda, 
 J. Hasegawa, M. Ishida, T. Nakajima, Y. Honda, O. Kitao, H. Nakai, 
 T. Vreven, K. Throssell, J. A. Montgomery, Jr., J. E. Peralta, 
 F. Ogliaro, M. J. Bearpark, J. J. Heyd, E. N. Brothers, K. N. Kudin, 
 V. N. Staroverov, T. A. Keith, R. Kobayashi, J. Normand, 
 K. Raghavachari, A. P. Rendell, J. C. Burant, S. S. Iyengar, 
 J. Tomasi, M. Cossi, J. M. Millam, M. Klene, C. Adamo, R. Cammi, 
 J. W. Ochterski, R. L. Martin, K. Morokuma, O. Farkas, 
 J. B. Foresman, and D. J. Fox, Gaussian, Inc., Wallingford CT, 2019.
 
 ******************************************
 Gaussian 16:  ES64L-G16RevC.01  3-Jul-2019
                25-Oct-2021 
 ******************************************
 %mem=30GB
 %chk=/home/rong/g16/learning/naphthaleneNPhCHCH3.chk
 %nprocshared=16
 Will use up to   16 processors via shared memory.
 ----------------------------------------------------
 # opt freq b3lyp/6-31g(d) scrf=(smd,solvent=toluene)
 ----------------------------------------------------
 1/18=20,19=15,26=3,38=1/1,3;
 2/9=110,12=2,17=6,18=5,40=1/2;
 3/5=1,6=6,7=1,11=2,25=1,30=1,70=32201,71=1,72=13,74=-5/1,2,3;
 4//1;
 5/5=2,38=5,53=13/2;
 6/7=2,8=2,9=2,10=2,28=1/1;
 7//1,2,3,16;
 1/18=20,19=15,26=3/3(2);
 2/9=110/2;
 99//99;
 2/9=110/2;
 3/5=1,6=6,7=1,11=2,25=1,30=1,70=32205,71=1,72=13,74=-5/1,2,3;
 4/5=5,16=3,69=1/1;
 5/5=2,38=5,53=13/2;
 7//1,2,3,16;
 1/18=20,19=15,26=3/3(-5);
 2/9=110/2;
 6/7=2,8=2,9=2,10=2,19=2,28=1/1;
 99/9=1/99;
 -----------------
 naphthaleneNCHCH3
 -----------------
 Symbolic Z-matrix:
 Charge =  0 Multiplicity = 1
 C                     0.54981   2.4287    0.47419 
 C                    -0.15177   1.24058   0.23745 
 C                     0.54102   0.02622   0.21006 
 C                     1.92444   0.01301   0.4054 
 C                     2.6104    1.21438   0.63863 
 C                     1.93824   2.39465   0.6744 
 H                     0.02757   3.36225   0.50218 
 C                    -0.13858  -1.17496  -0.01132 
 C                     2.62566  -1.2017    0.36786 
 H                     3.66956   1.20094   0.78955 
 H                     2.47137   3.30445   0.85614 
 C                     1.96799  -2.36931   0.14284 
 C                     0.57837  -2.37668  -0.04943 
 H                     3.68496  -1.20862   0.51724 
 H                     2.51348  -3.28931   0.11247 
 H                     0.06693  -3.30038  -0.22455 
 N                    -1.60516   1.27048   0.01721 
 N                    -1.59517  -1.17605  -0.20047 
 C                    -1.97675   2.54746  -0.6096 
 H                    -2.81262   2.35409  -1.249 
 C                    -1.97598  -2.29191  -1.07822 
 H                    -1.17344  -2.43741  -1.77079 
 C                    -2.34543   3.75871   0.26686 
 H                    -1.46362   4.32586   0.48085 
 H                    -3.04839   4.37503  -0.25416 
 H                    -2.78061   3.41704   1.18251 
 C                    -2.31042  -3.66835  -0.47366 
 H                    -3.02409  -4.16759  -1.09571 
 H                    -1.41859  -4.25649  -0.41107 
 H                    -2.72082  -3.53741   0.50578 
 C                    -2.30406   1.13514   1.30327 
 H                    -2.03471   0.20574   1.76021 
 H                    -2.0261    1.94276   1.94748 
 C                    -2.25261  -1.32972   1.10553 
 H                    -1.97225  -0.51758   1.74318 
 H                    -1.94897  -2.25418   1.55075 
 C                    -3.82537   1.16877   1.06445 
 C                    -4.67903   1.67802   2.05222 
 C                    -4.35603   0.69027  -0.14142 
 C                    -6.06311   1.71006   1.83387 
 H                    -4.27417   2.04254   2.97312 
 C                    -5.74003   0.72281  -0.35989 
 H                    -3.70453   0.30012  -0.89538 
 C                    -6.5935    1.23291   0.6277 
 H                    -6.71498   2.09881   2.58802 
 H                    -6.14504   0.35817  -1.28065 
 H                    -7.6501    1.258     0.46078 
 C                    -3.78025  -1.32892   0.91652 
 C                    -4.61098  -0.84405   1.9357 
 C                    -4.33958  -1.81264  -0.27345 
 C                    -6.00188  -0.84363   1.7649 
 H                    -4.18325  -0.47427   2.84421 
 C                    -5.73029  -1.81124  -0.4447 
 H                    -3.70498  -2.18293  -1.05134 
 C                    -6.56144  -1.32686   0.57453 
 H                    -6.63631  -0.47429   2.54327 
 H                    -6.15749  -2.17993  -1.35367 
 H                    -7.62339  -1.32616   0.44356 
 H                    -2.83157  -1.97613  -1.63781 
 H                    -1.15774   2.8446   -1.23075 
 

 GradGradGradGradGradGradGradGradGradGradGradGradGradGradGradGradGradGrad
 Berny optimization.
 Initialization pass.
                           ----------------------------
                           !    Initial Parameters    !
                           ! (Angstroms and Degrees)  !
 --------------------------                            --------------------------
 ! Name  Definition              Value          Derivative Info.                !
 --------------------------------------------------------------------------------
 ! R1    R(1,2)                  1.4            estimate D2E/DX2                !
 ! R2    R(1,6)                  1.4032         estimate D2E/DX2                !
 ! R3    R(1,7)                  1.0701         estimate D2E/DX2                !
 ! R4    R(2,3)                  1.3984         estimate D2E/DX2                !
 ! R5    R(2,17)                 1.4703         estimate D2E/DX2                !
 ! R6    R(3,4)                  1.3972         estimate D2E/DX2                !
 ! R7    R(3,8)                  1.3977         estimate D2E/DX2                !
 ! R8    R(4,5)                  1.4029         estimate D2E/DX2                !
 ! R9    R(4,9)                  1.4031         estimate D2E/DX2                !
 ! R10   R(5,6)                  1.3587         estimate D2E/DX2                !
 ! R11   R(5,10)                 1.0699         estimate D2E/DX2                !
 ! R12   R(6,11)                 1.07           estimate D2E/DX2                !
 ! R13   R(8,13)                 1.3999         estimate D2E/DX2                !
 ! R14   R(8,18)                 1.4688         estimate D2E/DX2                !
 ! R15   R(9,12)                 1.3589         estimate D2E/DX2                !
 ! R16   R(9,14)                 1.0698         estimate D2E/DX2                !
 ! R17   R(12,13)                1.4029         estimate D2E/DX2                !
 ! R18   R(12,15)                1.07           estimate D2E/DX2                !
 ! R19   R(13,16)                1.0703         estimate D2E/DX2                !
 ! R20   R(17,19)                1.4703         estimate D2E/DX2                !
 ! R21   R(17,31)                1.4699         estimate D2E/DX2                !
 ! R22   R(18,21)                1.4699         estimate D2E/DX2                !
 ! R23   R(18,34)                1.4702         estimate D2E/DX2                !
 ! R24   R(19,20)                1.07           estimate D2E/DX2                !
 ! R25   R(19,23)                1.5399         estimate D2E/DX2                !
 ! R26   R(19,60)                1.07           estimate D2E/DX2                !
 ! R27   R(21,22)                1.07           estimate D2E/DX2                !
 ! R28   R(21,27)                1.5401         estimate D2E/DX2                !
 ! R29   R(21,59)                1.07           estimate D2E/DX2                !
 ! R30   R(23,24)                1.0701         estimate D2E/DX2                !
 ! R31   R(23,25)                1.0703         estimate D2E/DX2                !
 ! R32   R(23,26)                1.0698         estimate D2E/DX2                !
 ! R33   R(27,28)                1.0703         estimate D2E/DX2                !
 ! R34   R(27,29)                1.0701         estimate D2E/DX2                !
 ! R35   R(27,30)                1.07           estimate D2E/DX2                !
 ! R36   R(31,32)                1.0701         estimate D2E/DX2                !
 ! R37   R(31,33)                1.0698         estimate D2E/DX2                !
 ! R38   R(31,37)                1.5403         estimate D2E/DX2                !
 ! R39   R(32,35)                0.7262         estimate D2E/DX2                !
 ! R40   R(34,35)                1.0699         estimate D2E/DX2                !
 ! R41   R(34,36)                1.0701         estimate D2E/DX2                !
 ! R42   R(34,48)                1.5393         estimate D2E/DX2                !
 ! R43   R(37,38)                1.4013         estimate D2E/DX2                !
 ! R44   R(37,39)                1.4017         estimate D2E/DX2                !
 ! R45   R(38,40)                1.4016         estimate D2E/DX2                !
 ! R46   R(38,41)                1.07           estimate D2E/DX2                !
 ! R47   R(39,42)                1.4015         estimate D2E/DX2                !
 ! R48   R(39,43)                1.0701         estimate D2E/DX2                !
 ! R49   R(40,44)                1.4014         estimate D2E/DX2                !
 ! R50   R(40,45)                1.07           estimate D2E/DX2                !
 ! R51   R(42,44)                1.4014         estimate D2E/DX2                !
 ! R52   R(42,46)                1.07           estimate D2E/DX2                !
 ! R53   R(44,47)                1.07           estimate D2E/DX2                !
 ! R54   R(48,49)                1.4014         estimate D2E/DX2                !
 ! R55   R(48,50)                1.401          estimate D2E/DX2                !
 ! R56   R(49,51)                1.4013         estimate D2E/DX2                !
 ! R57   R(49,52)                1.0701         estimate D2E/DX2                !
 ! R58   R(50,53)                1.4012         estimate D2E/DX2                !
 ! R59   R(50,54)                1.07           estimate D2E/DX2                !
 ! R60   R(51,55)                1.4013         estimate D2E/DX2                !
 ! R61   R(51,56)                1.0699         estimate D2E/DX2                !
 ! R62   R(53,55)                1.4015         estimate D2E/DX2                !
 ! R63   R(53,57)                1.0699         estimate D2E/DX2                !
 ! R64   R(55,58)                1.07           estimate D2E/DX2                !
 ! A1    A(2,1,6)              119.9607         estimate D2E/DX2                !
 ! A2    A(2,1,7)              120.0164         estimate D2E/DX2                !
 ! A3    A(6,1,7)              120.0229         estimate D2E/DX2                !
 ! A4    A(1,2,3)              119.4748         estimate D2E/DX2                !
 ! A5    A(1,2,17)             120.2293         estimate D2E/DX2                !
 ! A6    A(3,2,17)             120.2959         estimate D2E/DX2                !
 ! A7    A(2,3,4)              119.7368         estimate D2E/DX2                !
 ! A8    A(2,3,8)              120.5649         estimate D2E/DX2                !
 ! A9    A(4,3,8)              119.6983         estimate D2E/DX2                !
 ! A10   A(3,4,5)              119.9518         estimate D2E/DX2                !
 ! A11   A(3,4,9)              119.9528         estimate D2E/DX2                !
 ! A12   A(5,4,9)              120.0954         estimate D2E/DX2                !
 ! A13   A(4,5,6)              120.421          estimate D2E/DX2                !
 ! A14   A(4,5,10)             119.7828         estimate D2E/DX2                !
 ! A15   A(6,5,10)             119.7961         estimate D2E/DX2                !
 ! A16   A(1,6,5)              120.4519         estimate D2E/DX2                !
 ! A17   A(1,6,11)             119.7749         estimate D2E/DX2                !
 ! A18   A(5,6,11)             119.7732         estimate D2E/DX2                !
 ! A19   A(3,8,13)             119.5397         estimate D2E/DX2                !
 ! A20   A(3,8,18)             120.2114         estimate D2E/DX2                !
 ! A21   A(13,8,18)            120.2488         estimate D2E/DX2                !
 ! A22   A(4,9,12)             120.4273         estimate D2E/DX2                !
 ! A23   A(4,9,14)             119.7838         estimate D2E/DX2                !
 ! A24   A(12,9,14)            119.7888         estimate D2E/DX2                !
 ! A25   A(9,12,13)            120.4394         estimate D2E/DX2                !
 ! A26   A(9,12,15)            119.7866         estimate D2E/DX2                !
 ! A27   A(13,12,15)           119.7741         estimate D2E/DX2                !
 ! A28   A(8,13,12)            119.939          estimate D2E/DX2                !
 ! A29   A(8,13,16)            120.0406         estimate D2E/DX2                !
 ! A30   A(12,13,16)           120.0204         estimate D2E/DX2                !
 ! A31   A(2,17,19)            109.3513         estimate D2E/DX2                !
 ! A32   A(2,17,31)            109.6982         estimate D2E/DX2                !
 ! A33   A(19,17,31)           109.4387         estimate D2E/DX2                !
 ! A34   A(8,18,21)            109.5344         estimate D2E/DX2                !
 ! A35   A(8,18,34)            109.217          estimate D2E/DX2                !
 ! A36   A(21,18,34)           109.588          estimate D2E/DX2                !
 ! A37   A(17,19,20)           107.1716         estimate D2E/DX2                !
 ! A38   A(17,19,23)           120.069          estimate D2E/DX2                !
 ! A39   A(17,19,60)           107.1716         estimate D2E/DX2                !
 ! A40   A(20,19,23)           107.1716         estimate D2E/DX2                !
 ! A41   A(20,19,60)           107.5318         estimate D2E/DX2                !
 ! A42   A(23,19,60)           107.1716         estimate D2E/DX2                !
 ! A43   A(18,21,22)           107.1828         estimate D2E/DX2                !
 ! A44   A(18,21,27)           120.0211         estimate D2E/DX2                !
 ! A45   A(18,21,59)           107.1828         estimate D2E/DX2                !
 ! A46   A(22,21,27)           107.1828         estimate D2E/DX2                !
 ! A47   A(22,21,59)           107.5396         estimate D2E/DX2                !
 ! A48   A(27,21,59)           107.1828         estimate D2E/DX2                !
 ! A49   A(19,23,24)           109.4767         estimate D2E/DX2                !
 ! A50   A(19,23,25)           109.4596         estimate D2E/DX2                !
 ! A51   A(19,23,26)           109.4709         estimate D2E/DX2                !
 ! A52   A(24,23,25)           109.4754         estimate D2E/DX2                !
 ! A53   A(24,23,26)           109.4701         estimate D2E/DX2                !
 ! A54   A(25,23,26)           109.4746         estimate D2E/DX2                !
 ! A55   A(21,27,28)           109.4832         estimate D2E/DX2                !
 ! A56   A(21,27,29)           109.4616         estimate D2E/DX2                !
 ! A57   A(21,27,30)           109.4658         estimate D2E/DX2                !
 ! A58   A(28,27,29)           109.4714         estimate D2E/DX2                !
 ! A59   A(28,27,30)           109.4717         estimate D2E/DX2                !
 ! A60   A(29,27,30)           109.4736         estimate D2E/DX2                !
 ! A61   A(17,31,32)           109.5039         estimate D2E/DX2                !
 ! A62   A(17,31,33)           109.4991         estimate D2E/DX2                !
 ! A63   A(17,31,37)           109.3861         estimate D2E/DX2                !
 ! A64   A(32,31,33)           109.4585         estimate D2E/DX2                !
 ! A65   A(32,31,37)           109.4979         estimate D2E/DX2                !
 ! A66   A(33,31,37)           109.4817         estimate D2E/DX2                !
 ! A67   A(31,32,35)           151.2453         estimate D2E/DX2                !
 ! A68   A(18,34,35)           109.4446         estimate D2E/DX2                !
 ! A69   A(18,34,36)           109.4514         estimate D2E/DX2                !
 ! A70   A(18,34,48)           109.5525         estimate D2E/DX2                !
 ! A71   A(35,34,36)           109.4778         estimate D2E/DX2                !
 ! A72   A(35,34,48)           109.4413         estimate D2E/DX2                !
 ! A73   A(36,34,48)           109.4598         estimate D2E/DX2                !
 ! A74   A(32,35,34)           138.3715         estimate D2E/DX2                !
 ! A75   A(31,37,38)           120.0201         estimate D2E/DX2                !
 ! A76   A(31,37,39)           119.9905         estimate D2E/DX2                !
 ! A77   A(38,37,39)           119.9894         estimate D2E/DX2                !
 ! A78   A(37,38,40)           120.0049         estimate D2E/DX2                !
 ! A79   A(37,38,41)           119.9978         estimate D2E/DX2                !
 ! A80   A(40,38,41)           119.9974         estimate D2E/DX2                !
 ! A81   A(37,39,42)           120.0023         estimate D2E/DX2                !
 ! A82   A(37,39,43)           120.0076         estimate D2E/DX2                !
 ! A83   A(42,39,43)           119.9902         estimate D2E/DX2                !
 ! A84   A(38,40,44)           120.0043         estimate D2E/DX2                !
 ! A85   A(38,40,45)           120.0101         estimate D2E/DX2                !
 ! A86   A(44,40,45)           119.9857         estimate D2E/DX2                !
 ! A87   A(39,42,44)           120.0002         estimate D2E/DX2                !
 ! A88   A(39,42,46)           120.0018         estimate D2E/DX2                !
 ! A89   A(44,42,46)           119.9979         estimate D2E/DX2                !
 ! A90   A(40,44,42)           119.999          estimate D2E/DX2                !
 ! A91   A(40,44,47)           120.002          estimate D2E/DX2                !
 ! A92   A(42,44,47)           119.999          estimate D2E/DX2                !
 ! A93   A(34,48,49)           119.9456         estimate D2E/DX2                !
 ! A94   A(34,48,50)           120.0213         estimate D2E/DX2                !
 ! A95   A(49,48,50)           120.0331         estimate D2E/DX2                !
 ! A96   A(48,49,51)           119.9886         estimate D2E/DX2                !
 ! A97   A(48,49,52)           120.0036         estimate D2E/DX2                !
 ! A98   A(51,49,52)           120.0078         estimate D2E/DX2                !
 ! A99   A(48,50,53)           119.9799         estimate D2E/DX2                !
 ! A100  A(48,50,54)           120.0115         estimate D2E/DX2                !
 ! A101  A(53,50,54)           120.0086         estimate D2E/DX2                !
 ! A102  A(49,51,55)           119.9853         estimate D2E/DX2                !
 ! A103  A(49,51,56)           119.9986         estimate D2E/DX2                !
 ! A104  A(55,51,56)           120.016          estimate D2E/DX2                !
 ! A105  A(50,53,55)           120.0038         estimate D2E/DX2                !
 ! A106  A(50,53,57)           119.986          estimate D2E/DX2                !
 ! A107  A(55,53,57)           120.0102         estimate D2E/DX2                !
 ! A108  A(51,55,53)           120.0092         estimate D2E/DX2                !
 ! A109  A(51,55,58)           120.0047         estimate D2E/DX2                !
 ! A110  A(53,55,58)           119.986          estimate D2E/DX2                !
 ! D1    D(6,1,2,3)              0.3417         estimate D2E/DX2                !
 ! D2    D(6,1,2,17)          -179.5555         estimate D2E/DX2                !
 ! D3    D(7,1,2,3)           -179.6737         estimate D2E/DX2                !
 ! D4    D(7,1,2,17)             0.4291         estimate D2E/DX2                !
 ! D5    D(2,1,6,5)              0.0865         estimate D2E/DX2                !
 ! D6    D(2,1,6,11)          -179.9349         estimate D2E/DX2                !
 ! D7    D(7,1,6,5)           -179.8982         estimate D2E/DX2                !
 ! D8    D(7,1,6,11)             0.0805         estimate D2E/DX2                !
 ! D9    D(1,2,3,4)             -0.6389         estimate D2E/DX2                !
 ! D10   D(1,2,3,8)            179.3716         estimate D2E/DX2                !
 ! D11   D(17,2,3,4)           179.2582         estimate D2E/DX2                !
 ! D12   D(17,2,3,8)            -0.7313         estimate D2E/DX2                !
 ! D13   D(1,2,17,19)           30.1121         estimate D2E/DX2                !
 ! D14   D(1,2,17,31)          -89.9133         estimate D2E/DX2                !
 ! D15   D(3,2,17,19)         -149.7842         estimate D2E/DX2                !
 ! D16   D(3,2,17,31)           90.1903         estimate D2E/DX2                !
 ! D17   D(2,3,4,5)              0.5171         estimate D2E/DX2                !
 ! D18   D(2,3,4,9)           -179.4745         estimate D2E/DX2                !
 ! D19   D(8,3,4,5)           -179.4933         estimate D2E/DX2                !
 ! D20   D(8,3,4,9)              0.5151         estimate D2E/DX2                !
 ! D21   D(2,3,8,13)           179.2831         estimate D2E/DX2                !
 ! D22   D(2,3,8,18)            -0.8144         estimate D2E/DX2                !
 ! D23   D(4,3,8,13)            -0.7064         estimate D2E/DX2                !
 ! D24   D(4,3,8,18)           179.1961         estimate D2E/DX2                !
 ! D25   D(3,4,5,6)             -0.0888         estimate D2E/DX2                !
 ! D26   D(3,4,5,10)           179.8943         estimate D2E/DX2                !
 ! D27   D(9,4,5,6)            179.9028         estimate D2E/DX2                !
 ! D28   D(9,4,5,10)            -0.1141         estimate D2E/DX2                !
 ! D29   D(3,4,9,12)            -0.0264         estimate D2E/DX2                !
 ! D30   D(3,4,9,14)           179.9665         estimate D2E/DX2                !
 ! D31   D(5,4,9,12)           179.982          estimate D2E/DX2                !
 ! D32   D(5,4,9,14)            -0.0251         estimate D2E/DX2                !
 ! D33   D(4,5,6,1)             -0.2134         estimate D2E/DX2                !
 ! D34   D(4,5,6,11)           179.8079         estimate D2E/DX2                !
 ! D35   D(10,5,6,1)           179.8034         estimate D2E/DX2                !
 ! D36   D(10,5,6,11)           -0.1752         estimate D2E/DX2                !
 ! D37   D(3,8,13,12)            0.4197         estimate D2E/DX2                !
 ! D38   D(3,8,13,16)         -179.6138         estimate D2E/DX2                !
 ! D39   D(18,8,13,12)        -179.4827         estimate D2E/DX2                !
 ! D40   D(18,8,13,16)           0.4838         estimate D2E/DX2                !
 ! D41   D(3,8,18,21)          149.909          estimate D2E/DX2                !
 ! D42   D(3,8,18,34)          -90.0651         estimate D2E/DX2                !
 ! D43   D(13,8,18,21)         -30.1893         estimate D2E/DX2                !
 ! D44   D(13,8,18,34)          89.8367         estimate D2E/DX2                !
 ! D45   D(4,9,12,13)           -0.2659         estimate D2E/DX2                !
 ! D46   D(4,9,12,15)          179.7586         estimate D2E/DX2                !
 ! D47   D(14,9,12,13)         179.7413         estimate D2E/DX2                !
 ! D48   D(14,9,12,15)          -0.2342         estimate D2E/DX2                !
 ! D49   D(9,12,13,8)            0.0687         estimate D2E/DX2                !
 ! D50   D(9,12,13,16)        -179.8979         estimate D2E/DX2                !
 ! D51   D(15,12,13,8)        -179.9557         estimate D2E/DX2                !
 ! D52   D(15,12,13,16)          0.0777         estimate D2E/DX2                !
 ! D53   D(2,17,19,20)         147.4938         estimate D2E/DX2                !
 ! D54   D(2,17,19,23)         -90.0969         estimate D2E/DX2                !
 ! D55   D(2,17,19,60)          32.3124         estimate D2E/DX2                !
 ! D56   D(31,17,19,20)        -92.3216         estimate D2E/DX2                !
 ! D57   D(31,17,19,23)         30.0877         estimate D2E/DX2                !
 ! D58   D(31,17,19,60)        152.497          estimate D2E/DX2                !
 ! D59   D(2,17,31,32)         -60.0558         estimate D2E/DX2                !
 ! D60   D(2,17,31,33)          59.9658         estimate D2E/DX2                !
 ! D61   D(2,17,31,37)         179.9436         estimate D2E/DX2                !
 ! D62   D(19,17,31,32)        179.9721         estimate D2E/DX2                !
 ! D63   D(19,17,31,33)        -60.0063         estimate D2E/DX2                !
 ! D64   D(19,17,31,37)         59.9715         estimate D2E/DX2                !
 ! D65   D(8,18,21,22)         -32.5286         estimate D2E/DX2                !
 ! D66   D(8,18,21,27)          89.8707         estimate D2E/DX2                !
 ! D67   D(8,18,21,59)        -147.73           estimate D2E/DX2                !
 ! D68   D(34,18,21,22)       -152.3274         estimate D2E/DX2                !
 ! D69   D(34,18,21,27)        -29.9281         estimate D2E/DX2                !
 ! D70   D(34,18,21,59)         92.4713         estimate D2E/DX2                !
 ! D71   D(8,18,34,35)          59.8871         estimate D2E/DX2                !
 ! D72   D(8,18,34,36)         -60.0926         estimate D2E/DX2                !
 ! D73   D(8,18,34,48)         179.8838         estimate D2E/DX2                !
 ! D74   D(21,18,34,35)        179.88           estimate D2E/DX2                !
 ! D75   D(21,18,34,36)         59.9004         estimate D2E/DX2                !
 ! D76   D(21,18,34,48)        -60.1232         estimate D2E/DX2                !
 ! D77   D(17,19,23,24)         89.9822         estimate D2E/DX2                !
 ! D78   D(17,19,23,25)       -150.0164         estimate D2E/DX2                !
 ! D79   D(17,19,23,26)        -30.0196         estimate D2E/DX2                !
 ! D80   D(20,19,23,24)       -147.6085         estimate D2E/DX2                !
 ! D81   D(20,19,23,25)        -27.6071         estimate D2E/DX2                !
 ! D82   D(20,19,23,26)         92.3897         estimate D2E/DX2                !
 ! D83   D(60,19,23,24)        -32.427          estimate D2E/DX2                !
 ! D84   D(60,19,23,25)         87.5743         estimate D2E/DX2                !
 ! D85   D(60,19,23,26)       -152.4289         estimate D2E/DX2                !
 ! D86   D(18,21,27,28)        150.0199         estimate D2E/DX2                !
 ! D87   D(18,21,27,29)        -89.9784         estimate D2E/DX2                !
 ! D88   D(18,21,27,30)         30.0153         estimate D2E/DX2                !
 ! D89   D(22,21,27,28)        -87.5807         estimate D2E/DX2                !
 ! D90   D(22,21,27,29)         32.4209         estimate D2E/DX2                !
 ! D91   D(22,21,27,30)        152.4146         estimate D2E/DX2                !
 ! D92   D(59,21,27,28)         27.6206         estimate D2E/DX2                !
 ! D93   D(59,21,27,29)        147.6222         estimate D2E/DX2                !
 ! D94   D(59,21,27,30)        -92.384          estimate D2E/DX2                !
 ! D95   D(17,31,32,35)        -54.6428         estimate D2E/DX2                !
 ! D96   D(33,31,32,35)       -174.6892         estimate D2E/DX2                !
 ! D97   D(37,31,32,35)         65.2894         estimate D2E/DX2                !
 ! D98   D(17,31,37,38)       -149.9264         estimate D2E/DX2                !
 ! D99   D(17,31,37,39)         30.0519         estimate D2E/DX2                !
 ! D100  D(32,31,37,38)         90.0693         estimate D2E/DX2                !
 ! D101  D(32,31,37,39)        -89.9523         estimate D2E/DX2                !
 ! D102  D(33,31,37,38)        -29.9379         estimate D2E/DX2                !
 ! D103  D(33,31,37,39)        150.0404         estimate D2E/DX2                !
 ! D104  D(31,32,35,34)         -7.9563         estimate D2E/DX2                !
 ! D105  D(18,34,35,32)         62.0452         estimate D2E/DX2                !
 ! D106  D(36,34,35,32)       -177.9914         estimate D2E/DX2                !
 ! D107  D(48,34,35,32)        -58.0197         estimate D2E/DX2                !
 ! D108  D(18,34,48,49)       -150.1058         estimate D2E/DX2                !
 ! D109  D(18,34,48,50)         29.8981         estimate D2E/DX2                !
 ! D110  D(35,34,48,49)        -30.107          estimate D2E/DX2                !
 ! D111  D(35,34,48,50)        149.8969         estimate D2E/DX2                !
 ! D112  D(36,34,48,49)         89.8757         estimate D2E/DX2                !
 ! D113  D(36,34,48,50)        -90.1204         estimate D2E/DX2                !
 ! D114  D(31,37,38,40)        179.9172         estimate D2E/DX2                !
 ! D115  D(31,37,38,41)         -0.0743         estimate D2E/DX2                !
 ! D116  D(39,37,38,40)         -0.0611         estimate D2E/DX2                !
 ! D117  D(39,37,38,41)        179.9474         estimate D2E/DX2                !
 ! D118  D(31,37,39,42)       -179.8933         estimate D2E/DX2                !
 ! D119  D(31,37,39,43)          0.1033         estimate D2E/DX2                !
 ! D120  D(38,37,39,42)          0.0851         estimate D2E/DX2                !
 ! D121  D(38,37,39,43)       -179.9183         estimate D2E/DX2                !
 ! D122  D(37,38,40,44)         -0.0033         estimate D2E/DX2                !
 ! D123  D(37,38,40,45)        179.9959         estimate D2E/DX2                !
 ! D124  D(41,38,40,44)        179.9882         estimate D2E/DX2                !
 ! D125  D(41,38,40,45)         -0.0125         estimate D2E/DX2                !
 ! D126  D(37,39,42,44)         -0.0447         estimate D2E/DX2                !
 ! D127  D(37,39,42,46)        179.9586         estimate D2E/DX2                !
 ! D128  D(43,39,42,44)        179.9587         estimate D2E/DX2                !
 ! D129  D(43,39,42,46)         -0.0379         estimate D2E/DX2                !
 ! D130  D(38,40,44,42)          0.0437         estimate D2E/DX2                !
 ! D131  D(38,40,44,47)       -179.9584         estimate D2E/DX2                !
 ! D132  D(45,40,44,42)       -179.9555         estimate D2E/DX2                !
 ! D133  D(45,40,44,47)          0.0423         estimate D2E/DX2                !
 ! D134  D(39,42,44,40)         -0.0197         estimate D2E/DX2                !
 ! D135  D(39,42,44,47)        179.9824         estimate D2E/DX2                !
 ! D136  D(46,42,44,40)        179.977          estimate D2E/DX2                !
 ! D137  D(46,42,44,47)         -0.0209         estimate D2E/DX2                !
 ! D138  D(34,48,49,51)       -179.9632         estimate D2E/DX2                !
 ! D139  D(34,48,49,52)          0.0331         estimate D2E/DX2                !
 ! D140  D(50,48,49,51)          0.0329         estimate D2E/DX2                !
 ! D141  D(50,48,49,52)       -179.9708         estimate D2E/DX2                !
 ! D142  D(34,48,50,53)       -179.9858         estimate D2E/DX2                !
 ! D143  D(34,48,50,54)          0.0069         estimate D2E/DX2                !
 ! D144  D(49,48,50,53)          0.0181         estimate D2E/DX2                !
 ! D145  D(49,48,50,54)       -179.9892         estimate D2E/DX2                !
 ! D146  D(48,49,51,55)         -0.0609         estimate D2E/DX2                !
 ! D147  D(48,49,51,56)        179.9455         estimate D2E/DX2                !
 ! D148  D(52,49,51,55)        179.9428         estimate D2E/DX2                !
 ! D149  D(52,49,51,56)         -0.0508         estimate D2E/DX2                !
 ! D150  D(48,50,53,55)         -0.0411         estimate D2E/DX2                !
 ! D151  D(48,50,53,57)        179.9545         estimate D2E/DX2                !
 ! D152  D(54,50,53,55)        179.9662         estimate D2E/DX2                !
 ! D153  D(54,50,53,57)         -0.0382         estimate D2E/DX2                !
 ! D154  D(49,51,55,53)          0.0379         estimate D2E/DX2                !
 ! D155  D(49,51,55,58)       -179.9648         estimate D2E/DX2                !
 ! D156  D(56,51,55,53)       -179.9685         estimate D2E/DX2                !
 ! D157  D(56,51,55,58)          0.0288         estimate D2E/DX2                !
 ! D158  D(50,53,55,51)          0.0131         estimate D2E/DX2                !
 ! D159  D(50,53,55,58)       -179.9842         estimate D2E/DX2                !
 ! D160  D(57,53,55,51)       -179.9825         estimate D2E/DX2                !
 ! D161  D(57,53,55,58)          0.0202         estimate D2E/DX2                !
 --------------------------------------------------------------------------------
 Trust Radius=3.00D-01 FncErr=1.00D-07 GrdErr=1.00D-06 EigMax=2.50D+02 EigMin=1.00D-04
 Number of steps in this run=    345 maximum allowed number of steps=    360.
 GradGradGradGradGradGradGradGradGradGradGradGradGradGradGradGradGradGrad

 Stoichiometry    C28H30N2
 Framework group  C1[X(C28H30N2)]
 Deg. of freedom   174
 Full point group                 C1      NOp   1
 Largest Abelian subgroup         C1      NOp   1
 Largest concise Abelian subgroup C1      NOp   1
                         Standard orientation:                         
 ---------------------------------------------------------------------
 Center     Atomic      Atomic             Coordinates (Angstroms)
 Number     Number       Type             X           Y           Z
 ---------------------------------------------------------------------
      1          6           0       -2.784798   -2.442325   -0.139270
      2          6           0       -2.099210   -1.225393   -0.233801
      3          6           0       -2.790334   -0.028143   -0.023228
      4          6           0       -4.157090   -0.058411    0.265285
      5          6           0       -4.827353   -1.287736    0.353220
      6          6           0       -4.156181   -2.452820    0.157651
      7          1           0       -2.263340   -3.363893   -0.293604
      8          6           0       -2.125609    1.199084   -0.099094
      9          6           0       -4.857320    1.140688    0.466476
     10          1           0       -5.873657   -1.307836    0.575976
     11          1           0       -4.677039   -3.384714    0.230222
     12          6           0       -4.214770    2.335133    0.383255
     13          6           0       -2.841587    2.385300    0.100572
     14          1           0       -5.903880    1.114385    0.686705
     15          1           0       -4.759604    3.243483    0.534705
     16          1           0       -2.341896    3.329682    0.038191
     17          7           0       -0.664381   -1.207065   -0.554225
     18          7           0       -0.685407    1.243168   -0.384233
     19          6           0       -0.338639   -2.366653   -1.397368
     20          1           0        0.451752   -2.067860   -2.053801
     21          6           0       -0.363882    2.486178   -1.099889
     22          1           0       -1.211773    2.730955   -1.704922
     23          6           0        0.087329   -3.696774   -0.748864
     24          1           0       -0.778640   -4.298522   -0.567085
     25          1           0        0.751959   -4.217405   -1.406641
     26          1           0        0.584771   -3.498732    0.177345
     27          6           0        0.013371    3.753974   -0.311027
     28          1           0        0.683523    4.351011   -0.894092
     29          1           0       -0.871143    4.316825   -0.096521
     30          1           0        0.489723    3.475044    0.605573
     31          6           0        0.121229   -1.268380    0.686663
     32          1           0       -0.114714   -0.424522    1.300965
     33          1           0       -0.113211   -2.169446    1.213581
     34          6           0        0.060237    1.196452    0.881981
     35          1           0       -0.177046    0.291938    1.401894
     36          1           0       -0.210720    2.036957    1.486299
     37          6           0        1.622535   -1.250199    0.342736
     38          6           0        2.541080   -1.899987    1.178087
     39          6           0        2.070056   -0.583901   -0.806374
     40          6           0        3.906885   -1.884714    0.863904
     41          1           0        2.199705   -2.407936    2.055754
     42          6           0        3.435779   -0.569102   -1.120747
     43          1           0        1.369035   -0.086501   -1.443774
     44          6           0        4.354122   -1.219695   -0.285691
     45          1           0        4.608293   -2.380758    1.501688
     46          1           0        3.777308   -0.061048   -1.998268
     47          1           0        5.396753   -1.208624   -0.525869
     48          6           0        1.571330    1.239316    0.591858
     49          6           0        2.469190    0.608479    1.463546
     50          6           0        2.048556    1.908546   -0.542713
     51          6           0        3.845103    0.647596    1.200706
     52          1           0        2.104140    0.097066    2.329725
     53          6           0        3.424249    1.946767   -0.806134
     54          1           0        1.362715    2.390241   -1.207952
     55          6           0        4.322535    1.316410    0.065649
     56          1           0        4.530808    0.166766    1.866579
     57          1           0        3.788732    2.457176   -1.672910
     58          1           0        5.373008    1.345991   -0.135644
     59          1           0        0.450845    2.269809   -1.758907
     60          1           0       -1.198761   -2.570373   -2.000351
 ---------------------------------------------------------------------
 Rotational constants (GHZ):           0.3132164           0.1436880           0.1085504
 Standard basis: 6-31G(d) (6D, 7F)
 There are   510 symmetry adapted cartesian basis functions of A   symmetry.
 There are   510 symmetry adapted basis functions of A   symmetry.
   510 basis functions,   960 primitive gaussians,   510 cartesian basis functions
   106 alpha electrons      106 beta electrons
       nuclear repulsion energy      3124.6338216209 Hartrees.
 NAtoms=   60 NActive=   60 NUniq=   60 SFac= 1.00D+00 NAtFMM=   60 NAOKFM=T Big=T
 Integral buffers will be    131072 words long.
 Raffenetti 2 integral format.
 Two-electron integral symmetry is turned on.
 ------------------------------------------------------------------------------
 Polarizable Continuum Model (PCM)
 =================================
 Model                : PCM.
 Atomic radii         : SMD-Coulomb.
 Polarization charges : Total charges.
 Charge compensation  : None.
 Solution method      : On-the-fly selection.
 Cavity type          : VdW (van der Waals Surface) (Alpha=1.000).
 Cavity algorithm     : GePol (No added spheres)
                        Default sphere list used, NSphG=   60.
                        Lebedev-Laikov grids with approx.  5.0 points / Ang**2.
                        Smoothing algorithm: York/Karplus (Gamma=1.0000).
                        Polarization charges: spherical gaussians, with
                                              point-specific exponents (IZeta= 3).
                        Self-potential: point-specific (ISelfS= 7).
                        Self-field    : sphere-specific E.n sum rule (ISelfD= 2).
 1st derivatives      : Analytical E(r).r(x)/FMM algorithm (CHGder, D1EAlg=3).
                        Cavity 1st derivative terms included.
 Solvent              : Toluene, Eps=   2.374100 Eps(inf)=   2.238315
 ------------------------------------------------------------------------------
 ------------------------------------------------------------------------------
 Atomic radii for non-electrostatic terms: SMD-CDS.
 ------------------------------------------------------------------------------
 Nuclear repulsion after PCM non-electrostatic terms =     3124.6180225739 Hartrees.
 One-electron integrals computed using PRISM.
 NBasis=   510 RedAO= T EigKep=  1.83D-04  NBF=   510
 NBsUse=   510 1.00D-06 EigRej= -1.00D+00 NBFU=   510
 ExpMin= 1.61D-01 ExpMax= 4.17D+03 ExpMxC= 6.27D+02 IAcc=3 IRadAn=         5 AccDes= 0.00D+00
 Harris functional with IExCor=  402 and IRadAn=       5 diagonalized for initial guess.
 HarFok:  IExCor=  402 AccDes= 0.00D+00 IRadAn=         5 IDoV= 1 UseB2=F ITyADJ=14
 ICtDFT=  3500011 ScaDFX=  1.000000  1.000000  1.000000  1.000000
 FoFCou: FMM=F IPFlag=           0 FMFlag=      100000 FMFlg1=        2001
         NFxFlg=           0 DoJE=T BraDBF=F KetDBF=T FulRan=T
         wScrn=  0.000000 ICntrl=       500 IOpCl=  0 I1Cent=   200000004 NGrid=           0
         NMat0=    1 NMatS0=      1 NMatT0=    0 NMatD0=    1 NMtDS0=    0 NMtDT0=    0
 Petite list used in FoFCou.
 Requested convergence on RMS density matrix=1.00D-08 within 128 cycles.
 Requested convergence on MAX density matrix=1.00D-06.
 Requested convergence on             energy=1.00D-06.
 No special actions if energy rises.
 Inv3:  Mode=1 IEnd=    36414768.
 Iteration    1 A*A^-1 deviation from unit magnitude is 3.44D-15 for   3459.
 Iteration    1 A*A^-1 deviation from orthogonality  is 2.56D-15 for   1251    995.
 Iteration    1 A^-1*A deviation from unit magnitude is 3.44D-15 for   3459.
 Iteration    1 A^-1*A deviation from orthogonality  is 3.45D-15 for   1260   1002.
 Error on total polarization charges =  0.04132
 SCF Done:  E(RB3LYP) =  -1194.13644615     A.U. after   14 cycles
            NFock= 14  Conv=0.34D-08     -V/T= 2.0070
 SMD-CDS (non-electrostatic) energy       (kcal/mol) =      -9.91
 (included in total energy above)

 **********************************************************************

            Population analysis using the SCF Density.

 **********************************************************************

 Orbital symmetries:
       Occupied  (A) (A) (A) (A) (A) (A) (A) (A) (A) (A) (A) (A)
                 (A) (A) (A) (A) (A) (A) (A) (A) (A) (A) (A) (A)
                 (A) (A) (A) (A) (A) (A) (A) (A) (A) (A) (A) (A)
                 (A) (A) (A) (A) (A) (A) (A) (A) (A) (A) (A) (A)
                 (A) (A) (A) (A) (A) (A) (A) (A) (A) (A) (A) (A)
                 (A) (A) (A) (A) (A) (A) (A) (A) (A) (A) (A) (A)
                 (A) (A) (A) (A) (A) (A) (A) (A) (A) (A) (A) (A)
                 (A) (A) (A) (A) (A) (A) (A) (A) (A) (A) (A) (A)
                 (A) (A) (A) (A) (A) (A) (A) (A) (A) (A)
       Virtual   (A) (A) (A) (A) (A) (A) (A) (A) (A) (A) (A) (A)
                 (A) (A) (A) (A) (A) (A) (A) (A) (A) (A) (A) (A)
                 (A) (A) (A) (A) (A) (A) (A) (A) (A) (A) (A) (A)
                 (A) (A) (A) (A) (A) (A) (A) (A) (A) (A) (A) (A)
                 (A) (A) (A) (A) (A) (A) (A) (A) (A) (A) (A) (A)
                 (A) (A) (A) (A) (A) (A) (A) (A) (A) (A) (A) (A)
                 (A) (A) (A) (A) (A) (A) (A) (A) (A) (A) (A) (A)
                 (A) (A) (A) (A) (A) (A) (A) (A) (A) (A) (A) (A)
                 (A) (A) (A) (A) (A) (A) (A) (A) (A) (A) (A) (A)
                 (A) (A) (A) (A) (A) (A) (A) (A) (A) (A) (A) (A)
                 (A) (A) (A) (A) (A) (A) (A) (A) (A) (A) (A) (A)
                 (A) (A) (A) (A) (A) (A) (A) (A) (A) (A) (A) (A)
                 (A) (A) (A) (A) (A) (A) (A) (A) (A) (A) (A) (A)
                 (A) (A) (A) (A) (A) (A) (A) (A) (A) (A) (A) (A)
                 (A) (A) (A) (A) (A) (A) (A) (A) (A) (A) (A) (A)
                 (A) (A) (A) (A) (A) (A) (A) (A) (A) (A) (A) (A)
                 (A) (A) (A) (A) (A) (A) (A) (A) (A) (A) (A) (A)
                 (A) (A) (A) (A) (A) (A) (A) (A) (A) (A) (A) (A)
                 (A) (A) (A) (A) (A) (A) (A) (A) (A) (A) (A) (A)
                 (A) (A) (A) (A) (A) (A) (A) (A) (A) (A) (A) (A)
                 (A) (A) (A) (A) (A) (A) (A) (A) (A) (A) (A) (A)
                 (A) (A) (A) (A) (A) (A) (A) (A) (A) (A) (A) (A)
                 (A) (A) (A) (A) (A) (A) (A) (A) (A) (A) (A) (A)
                 (A) (A) (A) (A) (A) (A) (A) (A) (A) (A) (A) (A)
                 (A) (A) (A) (A) (A) (A) (A) (A) (A) (A) (A) (A)
                 (A) (A) (A) (A) (A) (A) (A) (A) (A) (A) (A) (A)
                 (A) (A) (A) (A) (A) (A) (A) (A) (A) (A) (A) (A)
                 (A) (A) (A) (A) (A) (A) (A) (A) (A) (A) (A) (A)
                 (A) (A) (A) (A) (A) (A) (A) (A) (A) (A) (A) (A)
                 (A) (A) (A) (A) (A) (A) (A) (A) (A) (A) (A) (A)
                 (A) (A) (A) (A) (A) (A) (A) (A) (A) (A) (A) (A)
                 (A) (A) (A) (A) (A) (A) (A) (A) (A) (A) (A) (A)
                 (A) (A) (A) (A) (A) (A) (A) (A) (A) (A) (A) (A)
                 (A) (A) (A) (A) (A) (A) (A) (A)
 The electronic state is 1-A.
 Alpha  occ. eigenvalues --  -14.32672 -14.32107 -10.21231 -10.21095 -10.19032
 Alpha  occ. eigenvalues --  -10.18836 -10.18544 -10.18364 -10.18326 -10.18259
 Alpha  occ. eigenvalues --  -10.18116 -10.18043 -10.17930 -10.17853 -10.17790
 Alpha  occ. eigenvalues --  -10.17638 -10.17580 -10.17501 -10.17433 -10.17337
 Alpha  occ. eigenvalues --  -10.17255 -10.17221 -10.17160 -10.16978 -10.16302
 Alpha  occ. eigenvalues --  -10.16069 -10.16062 -10.15869 -10.15110 -10.14540
 Alpha  occ. eigenvalues --   -0.94674  -0.91661  -0.87603  -0.86088  -0.81990
 Alpha  occ. eigenvalues --   -0.80847  -0.79736  -0.77730  -0.74984  -0.74450
 Alpha  occ. eigenvalues --   -0.73875  -0.73533  -0.73416  -0.71721  -0.70678
 Alpha  occ. eigenvalues --   -0.69570  -0.65550  -0.62509  -0.61921  -0.61746
 Alpha  occ. eigenvalues --   -0.60529  -0.59903  -0.59096  -0.58317  -0.57354
 Alpha  occ. eigenvalues --   -0.55952  -0.52865  -0.52283  -0.51116  -0.50010
 Alpha  occ. eigenvalues --   -0.49418  -0.48890  -0.48011  -0.46838  -0.45324
 Alpha  occ. eigenvalues --   -0.45057  -0.44909  -0.44416  -0.43897  -0.43193
 Alpha  occ. eigenvalues --   -0.42410  -0.42014  -0.41537  -0.41234  -0.40965
 Alpha  occ. eigenvalues --   -0.40834  -0.40527  -0.39980  -0.39563  -0.38829
 Alpha  occ. eigenvalues --   -0.38311  -0.38159  -0.37431  -0.36380  -0.36199
 Alpha  occ. eigenvalues --   -0.35189  -0.35048  -0.34208  -0.33983  -0.33247
 Alpha  occ. eigenvalues --   -0.33002  -0.32668  -0.31922  -0.31477  -0.29685
 Alpha  occ. eigenvalues --   -0.29064  -0.28683  -0.28045  -0.26872  -0.24043
 Alpha  occ. eigenvalues --   -0.23807  -0.23177  -0.21433  -0.19594  -0.17210
 Alpha  occ. eigenvalues --   -0.16246
 Alpha virt. eigenvalues --   -0.02795  -0.00788  -0.00233   0.00149   0.02361
 Alpha virt. eigenvalues --    0.04176   0.04285   0.09099   0.10287   0.10593
 Alpha virt. eigenvalues --    0.11214   0.11635   0.12312   0.12597   0.13502
 Alpha virt. eigenvalues --    0.13803   0.14376   0.14440   0.14689   0.15382
 Alpha virt. eigenvalues --    0.16039   0.16176   0.16861   0.17434   0.17552
 Alpha virt. eigenvalues --    0.18373   0.18528   0.18793   0.19185   0.19922
 Alpha virt. eigenvalues --    0.20376   0.20866   0.20925   0.21455   0.21889
 Alpha virt. eigenvalues --    0.22215   0.22829   0.23855   0.23930   0.24418
 Alpha virt. eigenvalues --    0.24966   0.26015   0.26320   0.26999   0.27723
 Alpha virt. eigenvalues --    0.28612   0.28745   0.29180   0.29769   0.30705
 Alpha virt. eigenvalues --    0.31044   0.31709   0.32807   0.33542   0.33851
 Alpha virt. eigenvalues --    0.33987   0.34493   0.35653   0.36066   0.36442
 Alpha virt. eigenvalues --    0.36793   0.37963   0.38140   0.40555   0.41129
 Alpha virt. eigenvalues --    0.45434   0.47197   0.48282   0.49519   0.50273
 Alpha virt. eigenvalues --    0.50689   0.51642   0.51788   0.52598   0.53384
 Alpha virt. eigenvalues --    0.53646   0.54189   0.54781   0.55438   0.55684
 Alpha virt. eigenvalues --    0.56094   0.56611   0.56845   0.56995   0.57155
 Alpha virt. eigenvalues --    0.57724   0.57938   0.58890   0.59219   0.59724
 Alpha virt. eigenvalues --    0.60183   0.60413   0.60503   0.61111   0.61368
 Alpha virt. eigenvalues --    0.61566   0.61804   0.62085   0.62390   0.62501
 Alpha virt. eigenvalues --    0.63271   0.63762   0.64625   0.65183   0.65946
 Alpha virt. eigenvalues --    0.66717   0.66813   0.67617   0.67954   0.68309
 Alpha virt. eigenvalues --    0.68588   0.69060   0.69783   0.70446   0.71304
 Alpha virt. eigenvalues --    0.71920   0.72376   0.73172   0.74568   0.75548
 Alpha virt. eigenvalues --    0.77454   0.79021   0.80102   0.80777   0.81067
 Alpha virt. eigenvalues --    0.81343   0.81979   0.83213   0.83826   0.84161
 Alpha virt. eigenvalues --    0.84758   0.85118   0.85461   0.85932   0.86072
 Alpha virt. eigenvalues --    0.86534   0.86754   0.87214   0.87906   0.88094
 Alpha virt. eigenvalues --    0.88943   0.89473   0.89654   0.89978   0.90429
 Alpha virt. eigenvalues --    0.90900   0.91145   0.91712   0.92280   0.92882
 Alpha virt. eigenvalues --    0.92970   0.93683   0.94943   0.95393   0.95734
 Alpha virt. eigenvalues --    0.96735   0.97509   0.97749   0.98429   0.98868
 Alpha virt. eigenvalues --    0.99047   0.99438   0.99872   1.00251   1.01258
 Alpha virt. eigenvalues --    1.01753   1.02743   1.03333   1.03938   1.04599
 Alpha virt. eigenvalues --    1.05178   1.05944   1.07634   1.08832   1.09509
 Alpha virt. eigenvalues --    1.09712   1.11057   1.11901   1.13018   1.13322
 Alpha virt. eigenvalues --    1.14601   1.15088   1.15600   1.16388   1.16793
 Alpha virt. eigenvalues --    1.17978   1.19171   1.20981   1.21070   1.21773
 Alpha virt. eigenvalues --    1.22896   1.23444   1.24166   1.24773   1.26508
 Alpha virt. eigenvalues --    1.27656   1.28744   1.29369   1.30417   1.31051
 Alpha virt. eigenvalues --    1.31879   1.33919   1.34812   1.35556   1.37923
 Alpha virt. eigenvalues --    1.38083   1.40151   1.40870   1.41959   1.43243
 Alpha virt. eigenvalues --    1.44399   1.45085   1.46488   1.46824   1.46982
 Alpha virt. eigenvalues --    1.48011   1.48201   1.49246   1.50058   1.50353
 Alpha virt. eigenvalues --    1.50411   1.52353   1.53019   1.54817   1.56130
 Alpha virt. eigenvalues --    1.57295   1.57536   1.58785   1.60942   1.63406
 Alpha virt. eigenvalues --    1.64351   1.64531   1.65880   1.68821   1.71087
 Alpha virt. eigenvalues --    1.73024   1.73735   1.74604   1.75918   1.76989
 Alpha virt. eigenvalues --    1.78088   1.79109   1.79522   1.80849   1.82601
 Alpha virt. eigenvalues --    1.83579   1.85001   1.85031   1.86501   1.86933
 Alpha virt. eigenvalues --    1.88158   1.89381   1.90014   1.90709   1.92059
 Alpha virt. eigenvalues --    1.92323   1.93170   1.93885   1.94412   1.95671
 Alpha virt. eigenvalues --    1.96418   1.97202   1.97780   1.98994   1.99395
 Alpha virt. eigenvalues --    2.00286   2.00582   2.01822   2.02129   2.02561
 Alpha virt. eigenvalues --    2.03116   2.04146   2.04423   2.05253   2.06411
 Alpha virt. eigenvalues --    2.07015   2.07261   2.08511   2.09755   2.10258
 Alpha virt. eigenvalues --    2.11239   2.11925   2.12686   2.13778   2.15860
 Alpha virt. eigenvalues --    2.16076   2.17507   2.17866   2.18609   2.19739
 Alpha virt. eigenvalues --    2.19947   2.21786   2.22008   2.23000   2.24210
 Alpha virt. eigenvalues --    2.24436   2.26260   2.26628   2.26821   2.27992
 Alpha virt. eigenvalues --    2.28175   2.28910   2.29695   2.30252   2.31720
 Alpha virt. eigenvalues --    2.32016   2.32662   2.33256   2.34282   2.34994
 Alpha virt. eigenvalues --    2.35660   2.36614   2.37449   2.38404   2.38784
 Alpha virt. eigenvalues --    2.39945   2.41287   2.42249   2.42672   2.44636
 Alpha virt. eigenvalues --    2.46072   2.48904   2.49869   2.51350   2.52304
 Alpha virt. eigenvalues --    2.52837   2.54550   2.55832   2.57816   2.59240
 Alpha virt. eigenvalues --    2.61315   2.64194   2.65164   2.65505   2.66228
 Alpha virt. eigenvalues --    2.66708   2.67404   2.68435   2.68660   2.69426
 Alpha virt. eigenvalues --    2.70328   2.71193   2.72010   2.73902   2.74777
 Alpha virt. eigenvalues --    2.75724   2.76499   2.77915   2.78452   2.79221
 Alpha virt. eigenvalues --    2.80784   2.82078   2.82921   2.83255   2.84275
 Alpha virt. eigenvalues --    2.85916   2.87109   2.90805   2.91965   2.93956
 Alpha virt. eigenvalues --    2.98322   2.98626   3.01255   3.02658   3.05228
 Alpha virt. eigenvalues --    3.07532   3.10864   3.12329   3.17454   3.21447
 Alpha virt. eigenvalues --    3.44576   3.46012   3.46918   3.55583   4.12413
 Alpha virt. eigenvalues --    4.12542   4.14000   4.17873   4.20007   4.21689
 Alpha virt. eigenvalues --    4.24179   4.25658   4.26318   4.32073   4.36181
 Alpha virt. eigenvalues --    4.36934   4.37567   4.38266   4.39297   4.42772
 Alpha virt. eigenvalues --    4.45582   4.48578   4.49669   4.51180   4.53260
 Alpha virt. eigenvalues --    4.57104   4.60779   4.61032   4.63572   4.78681
 Alpha virt. eigenvalues --    4.85664   4.87256   4.90325   5.10172
          Condensed to atoms (all electrons):
 Mulliken charges:
               1
     1  C   -0.171565
     2  C    0.155288
     3  C    0.142787
     4  C    0.123135
     5  C   -0.211875
     6  C   -0.156481
     7  H    0.129944
     8  C    0.163133
     9  C   -0.210627
    10  H    0.134209
    11  H    0.136520
    12  C   -0.156665
    13  C   -0.170196
    14  H    0.134871
    15  H    0.136680
    16  H    0.127947
    17  N   -0.449354
    18  N   -0.445173
    19  C   -0.152154
    20  H    0.150792
    21  C   -0.185913
    22  H    0.147694
    23  C   -0.480361
    24  H    0.156954
    25  H    0.152650
    26  H    0.172952
    27  C   -0.484751
    28  H    0.159921
    29  H    0.166527
    30  H    0.185604
    31  C   -0.194885
    32  H    0.160207
    33  H    0.133753
    34  C   -0.222397
    35  H    0.183066
    36  H    0.144200
    37  C    0.093125
    38  C   -0.198994
    39  C   -0.147784
    40  C   -0.158648
    41  H    0.117673
    42  C   -0.122493
    43  H    0.187294
    44  C   -0.139229
    45  H    0.122066
    46  H    0.144604
    47  H    0.129072
    48  C    0.109181
    49  C   -0.175219
    50  C   -0.108752
    51  C   -0.112779
    52  H    0.145122
    53  C   -0.203068
    54  H    0.078567
    55  C   -0.131602
    56  H    0.145950
    57  H    0.118262
    58  H    0.130031
    59  H    0.217366
    60  H    0.153818
 Sum of Mulliken charges =  -0.00000
 Mulliken charges with hydrogens summed into heavy atoms:
               1
     1  C   -0.041621
     2  C    0.155288
     3  C    0.142787
     4  C    0.123135
     5  C   -0.077666
     6  C   -0.019961
     8  C    0.163133
     9  C   -0.075757
    12  C   -0.019985
    13  C   -0.042249
    17  N   -0.449354
    18  N   -0.445173
    19  C    0.152456
    21  C    0.179147
    23  C    0.002194
    27  C    0.027301
    31  C    0.099075
    34  C    0.104869
    37  C    0.093125
    38  C   -0.081321
    39  C    0.039510
    40  C   -0.036582
    42  C    0.022111
    44  C   -0.010157
    48  C    0.109181
    49  C   -0.030097
    50  C   -0.030185
    51  C    0.033171
    53  C   -0.084806
    55  C   -0.001570
 Electronic spatial extent (au):  <R**2>=          10057.0887
 Charge=             -0.0000 electrons
 Dipole moment (field-independent basis, Debye):
    X=              0.1891    Y=              0.5305    Z=              0.6195  Tot=              0.8372
 Quadrupole moment (field-independent basis, Debye-Ang):
   XX=           -166.8044   YY=           -173.2809   ZZ=           -174.1638
   XY=             -0.4467   XZ=             -3.0946   YZ=             -5.0667
 Traceless Quadrupole moment (field-independent basis, Debye-Ang):
   XX=              4.6120   YY=             -1.8645   ZZ=             -2.7474
   XY=             -0.4467   XZ=             -3.0946   YZ=             -5.0667
 Octapole moment (field-independent basis, Debye-Ang**2):
  XXX=              4.7550  YYY=              7.6873  ZZZ=             -4.1168  XYY=            -48.4829
  XXY=             -4.3469  XXZ=              7.9623  XZZ=             23.9996  YZZ=             -1.1697
  YYZ=            -11.5998  XYZ=            -18.4896
 Hexadecapole moment (field-independent basis, Debye-Ang**3):
 XXXX=          -8253.4413 YYYY=          -4018.3378 ZZZZ=           -864.5401 XXXY=            -20.0029
 XXXZ=           -109.6316 YYYX=             -0.8191 YYYZ=            -25.7301 ZZZX=              9.5563
 ZZZY=            -23.7807 XXYY=          -2157.9114 XXZZ=          -1672.0767 YYZZ=           -818.6918
 XXYZ=            -52.6421 YYXZ=            -16.4159 ZZXY=             -6.3484
 N-N= 3.124618022574D+03 E-N=-9.018141260461D+03  KE= 1.185891632246D+03
 D1PCM: PCM CHGder 1st derivatives, ID1Alg=3 FixD1E=F DoIter=F DoCFld=F I1PDM=0.
 Calling FoFJK, ICntrl=      2127 FMM=T ISym2X=0 I1Cent= 0 IOpClX= 0 NMat=1 NMatS=1 NMatT=0.
 ***** Axes restored to original set *****
 -------------------------------------------------------------------
 Center     Atomic                   Forces (Hartrees/Bohr)
 Number     Number              X              Y              Z
 -------------------------------------------------------------------
      1        6          -0.000981985   -0.018606356   -0.002695443
      2        6          -0.021870989    0.033684249    0.003148069
      3        6          -0.021214570   -0.000110091    0.002627857
      4        6           0.024783447   -0.000383461    0.003865836
      5        6           0.002945089    0.001214364    0.000323295
      6        6          -0.007395025    0.005980577   -0.001682344
      7        1           0.000810937    0.005243139    0.001647256
      8        6          -0.018436540   -0.035061518   -0.006055205
      9        6           0.002515296   -0.001239344    0.000115451
     10        1           0.012252030   -0.002408324    0.001608980
     11        1           0.005246057    0.011400240    0.002226907
     12        6          -0.006961232   -0.005495325   -0.002950866
     13        6          -0.001825340    0.018665996    0.001884363
     14        1           0.012342406    0.002139156    0.002032683
     15        1           0.005387275   -0.011578277   -0.000264420
     16        1           0.001318352   -0.005270341    0.000613132
     17        7           0.035023902    0.032125505    0.018522527
     18        7           0.030645131   -0.033263766    0.009795959
     19        6          -0.007870846    0.011679934   -0.001263730
     20        1          -0.012599861   -0.003848441   -0.011012078
     21        6           0.033153307   -0.015791290   -0.017912756
     22        1           0.011965425    0.001183738   -0.012537849
     23        6           0.007384500   -0.015932424   -0.007558005
     24        1           0.008201306    0.014850767    0.006983277
     25        1          -0.010577597    0.010931830   -0.007114894
     26        1          -0.008655802    0.007084681    0.010912821
     27        6           0.010868706    0.014055638   -0.003284457
     28        1          -0.010465449   -0.010134098   -0.008920961
     29        1           0.008585914   -0.014641822    0.002083025
     30        1          -0.006897989   -0.010628300    0.009647320
     31        6          -0.031746386    0.067929780   -0.023018265
     32        1          -0.007291683    0.178604068    0.014068651
     33        1           0.002894504    0.012852645    0.015750958
     34        6          -0.028588506   -0.064393175   -0.029901477
     35        1           0.020389238   -0.180100354    0.003670658
     36        1           0.005660060   -0.018009294    0.012140494
     37        6           0.011705978    0.034021784    0.008449465
     38        6          -0.006388305    0.017757059   -0.022222755
     39        6          -0.022699780    0.040596225   -0.011574878
     40        6           0.007342066    0.013974976   -0.019909467
     41        1           0.005630592    0.003923595    0.010865433
     42        6           0.017341542    0.036677174    0.000866823
     43        1           0.005327099    0.005652880   -0.005242754
     44        6           0.016288827    0.035291220    0.007955843
     45        1          -0.007854371    0.004009293    0.008770422
     46        1          -0.002442505    0.002495469   -0.009027460
     47        1          -0.012006403   -0.000075933   -0.001369255
     48        6           0.012984618   -0.033957409    0.004966731
     49        6          -0.022909837   -0.041698944    0.002130623
     50        6          -0.047694704   -0.017698011    0.024945956
     51        6           0.014234539   -0.038928597    0.006673509
     52        1           0.002468988   -0.003489557    0.009696330
     53        6           0.001420578   -0.014426482    0.027248474
     54        1          -0.054807573    0.003565768    0.024313606
     55        6           0.017594246   -0.034903319   -0.001720101
     56        1          -0.004696571   -0.002168297    0.007601163
     57        1          -0.005283383   -0.003830556   -0.010831107
     58        1          -0.012106623    0.000836524   -0.001367373
     59        1           0.038691235    0.008712954   -0.033990380
     60        1           0.008866667    0.000931883   -0.014725614
 -------------------------------------------------------------------
 Cartesian Forces:  Max     0.180100354 RMS     0.025897091

 GradGradGradGradGradGradGradGradGradGradGradGradGradGradGradGradGradGrad
 Berny optimization.
 FormGI is forming the generalized inverse of G from B-inverse, IUseBI=4.
 Internal  Forces:  Max     0.496042555 RMS     0.086440732
 Search for a local minimum.
 Step number   1 out of a maximum of  345
 All quantities printed in internal units (Hartrees-Bohrs-Radians)
 Mixed Optimization -- RFO/linear search
 Second derivative matrix not updated -- first step.
 ITU=  0
     Eigenvalues ---    0.00233   0.00235   0.00238   0.00246   0.00422
     Eigenvalues ---    0.00762   0.00767   0.00858   0.00947   0.01334
     Eigenvalues ---    0.01342   0.01542   0.01627   0.01831   0.02067
     Eigenvalues ---    0.02068   0.02068   0.02069   0.02069   0.02070
     Eigenvalues ---    0.02070   0.02070   0.02070   0.02070   0.02070
     Eigenvalues ---    0.02070   0.02071   0.02071   0.02071   0.02071
     Eigenvalues ---    0.02071   0.02073   0.02073   0.02074   0.02102
     Eigenvalues ---    0.02230   0.02260   0.02284   0.02305   0.02310
     Eigenvalues ---    0.02417   0.02426   0.02667   0.03323   0.03417
     Eigenvalues ---    0.03422   0.04780   0.04812   0.05312   0.05313
     Eigenvalues ---    0.05693   0.05718   0.05720   0.05720   0.05722
     Eigenvalues ---    0.06140   0.06384   0.07594   0.08598   0.10465
     Eigenvalues ---    0.10472   0.10947   0.10976   0.13540   0.13544
     Eigenvalues ---    0.14391   0.16000   0.16000   0.16000   0.16000
     Eigenvalues ---    0.16000   0.16000   0.16000   0.16000   0.16000
     Eigenvalues ---    0.16000   0.16000   0.16000   0.16000   0.16000
     Eigenvalues ---    0.16000   0.16000   0.16000   0.16000   0.16000
     Eigenvalues ---    0.16000   0.16000   0.16000   0.16045   0.16328
     Eigenvalues ---    0.17316   0.18022   0.18224   0.20234   0.22000
     Eigenvalues ---    0.22000   0.22000   0.22000   0.22064   0.22136
     Eigenvalues ---    0.22137   0.22219   0.23437   0.23485   0.23486
     Eigenvalues ---    0.23659   0.24418   0.24895   0.25000   0.25000
     Eigenvalues ---    0.28492   0.28509   0.28530   0.28582   0.31799
     Eigenvalues ---    0.32911   0.34083   0.35710   0.35732   0.35752
     Eigenvalues ---    0.35798   0.36876   0.37193   0.37197   0.37198
     Eigenvalues ---    0.37214   0.37217   0.37220   0.37220   0.37221
     Eigenvalues ---    0.37223   0.37225   0.37227   0.37230   0.37230
     Eigenvalues ---    0.37230   0.37230   0.37231   0.37231   0.37231
     Eigenvalues ---    0.37232   0.37233   0.37236   0.37236   0.37237
     Eigenvalues ---    0.37237   0.37244   0.37252   0.37252   0.37255
     Eigenvalues ---    0.38355   0.39946   0.41253   0.41284   0.41366
     Eigenvalues ---    0.41454   0.41470   0.42023   0.43250   0.44845
     Eigenvalues ---    0.45219   0.45358   0.45367   0.45377   0.45387
     Eigenvalues ---    0.45394   0.45399   0.45406   0.45413   0.45436
     Eigenvalues ---    0.45482   0.45567   0.51782   0.51979
 RFO step:  Lambda=-1.49583882D+00 EMin= 2.32797636D-03
 Linear search not attempted -- first point.
 Maximum step size (   0.300) exceeded in Quadratic search.
    -- Step size scaled by   0.377
 Iteration  1 RMS(Cart)=  0.28716746 RMS(Int)=  0.00639988
 Iteration  2 RMS(Cart)=  0.04806648 RMS(Int)=  0.00045390
 Iteration  3 RMS(Cart)=  0.00084193 RMS(Int)=  0.00040978
 Iteration  4 RMS(Cart)=  0.00000071 RMS(Int)=  0.00040978
 Variable       Old X    -DE/DX   Delta X   Delta X   Delta X     New X
                                 (Linear)    (Quad)   (Total)
    R1        2.64554   0.00950   0.00000   0.00183   0.00189   2.64743
    R2        2.65166  -0.03080   0.00000  -0.00658  -0.00657   2.64509
    R3        2.02212   0.00422   0.00000   0.00085   0.00085   2.02297
    R4        2.64251   0.07628   0.00000   0.01475   0.01406   2.65657
    R5        2.77844  -0.03411   0.00000  -0.00783  -0.00776   2.77068
    R6        2.64033   0.10980   0.00000   0.02235   0.02234   2.66267
    R7        2.64136   0.10752   0.00000   0.02176   0.02094   2.66230
    R8        2.65116  -0.00120   0.00000  -0.00023  -0.00030   2.65086
    R9        2.65144  -0.00634   0.00000  -0.00141  -0.00146   2.64998
   R10        2.56762  -0.03571   0.00000  -0.00722  -0.00728   2.56034
   R11        2.02190   0.01238   0.00000   0.00250   0.00250   2.02440
   R12        2.02208   0.01268   0.00000   0.00256   0.00256   2.02465
   R13        2.64535   0.01455   0.00000   0.00298   0.00303   2.64838
   R14        2.77567   0.02479   0.00000   0.00592   0.00572   2.78139
   R15        2.56787  -0.03937   0.00000  -0.00806  -0.00810   2.55976
   R16        2.02164   0.01249   0.00000   0.00252   0.00252   2.02416
   R17        2.65105  -0.02899   0.00000  -0.00621  -0.00621   2.64484
   R18        2.02199   0.01271   0.00000   0.00257   0.00257   2.02456
   R19        2.02248   0.00382   0.00000   0.00077   0.00077   2.02326
   R20        2.77837   0.03632   0.00000   0.00740   0.00740   2.78577
   R21        2.77780  -0.01613   0.00000  -0.00340  -0.00398   2.77382
   R22        2.77772   0.03718   0.00000   0.00757   0.00757   2.78528
   R23        2.77826   0.11879   0.00000   0.02427   0.02488   2.80314
   R24        2.02201   0.01712   0.00000   0.00346   0.00346   2.02546
   R25        2.90995   0.01601   0.00000   0.00339   0.00339   2.91334
   R26        2.02201   0.01560   0.00000   0.00315   0.00315   2.02516
   R27        2.02201   0.01693   0.00000   0.00342   0.00342   2.02542
   R28        2.91038   0.01845   0.00000   0.00391   0.00391   2.91429
   R29        2.02201  -0.01059   0.00000  -0.00214  -0.00214   2.01987
   R30        2.02214   0.01602   0.00000   0.00324   0.00324   2.02537
   R31        2.02250   0.01671   0.00000   0.00337   0.00337   2.02588
   R32        2.02168   0.01059   0.00000   0.00214   0.00214   2.02382
   R33        2.02256   0.01689   0.00000   0.00341   0.00341   2.02597
   R34        2.02225   0.01532   0.00000   0.00309   0.00309   2.02535
   R35        2.02198   0.01018   0.00000   0.00206   0.00206   2.02404
   R36        2.02221   0.29460   0.00000   0.06002   0.06050   2.08271
   R37        2.02168   0.01994   0.00000   0.00403   0.00403   2.02570
   R38        2.91075  -0.00283   0.00000  -0.00060  -0.00060   2.91015
   R39        1.37234   0.49604   0.00000   0.09843   0.09928   1.47162
   R40        2.02188   0.22790   0.00000   0.04579   0.04689   2.06877
   R41        2.02215   0.02222   0.00000   0.00449   0.00449   2.02664
   R42        2.90883   0.08644   0.00000   0.01830   0.01830   2.92714
   R43        2.64815   0.00566   0.00000   0.00109   0.00110   2.64926
   R44        2.64878  -0.00619   0.00000  -0.00118  -0.00117   2.64761
   R45        2.64856  -0.01087   0.00000  -0.00212  -0.00213   2.64644
   R46        2.02196   0.01282   0.00000   0.00259   0.00259   2.02455
   R47        2.64848  -0.00346   0.00000  -0.00065  -0.00065   2.64783
   R48        2.02220   0.00488   0.00000   0.00098   0.00098   2.02318
   R49        2.64821  -0.01985   0.00000  -0.00386  -0.00387   2.64434
   R50        2.02192   0.01242   0.00000   0.00251   0.00251   2.02443
   R51        2.64828   0.00851   0.00000   0.00165   0.00164   2.64992
   R52        2.02192   0.00784   0.00000   0.00158   0.00158   2.02351
   R53        2.02200   0.01207   0.00000   0.00244   0.00244   2.02443
   R54        2.64828   0.01182   0.00000   0.00234   0.00236   2.65064
   R55        2.64755   0.02366   0.00000   0.00463   0.00465   2.65220
   R56        2.64815  -0.00863   0.00000  -0.00167  -0.00167   2.64648
   R57        2.02216   0.00802   0.00000   0.00162   0.00162   2.02378
   R58        2.64790  -0.00588   0.00000  -0.00114  -0.00114   2.64676
   R59        2.02205  -0.05142   0.00000  -0.01038  -0.01038   2.01167
   R60        2.64805  -0.01363   0.00000  -0.00269  -0.00271   2.64534
   R61        2.02190   0.00757   0.00000   0.00153   0.00153   2.02343
   R62        2.64850  -0.03348   0.00000  -0.00654  -0.00655   2.64194
   R63        2.02180   0.01263   0.00000   0.00255   0.00255   2.02435
   R64        2.02200   0.01218   0.00000   0.00246   0.00246   2.02446
    A1        2.09371   0.05676   0.00000   0.01233   0.01238   2.10609
    A2        2.09468  -0.02485   0.00000  -0.00536  -0.00539   2.08929
    A3        2.09479  -0.03191   0.00000  -0.00697  -0.00700   2.08780
    A4        2.08523  -0.00275   0.00000   0.00011   0.00001   2.08524
    A5        2.09840  -0.19396   0.00000  -0.04305  -0.04330   2.05510
    A6        2.09956   0.19672   0.00000   0.04294   0.04329   2.14285
    A7        2.08980  -0.09032   0.00000  -0.01990  -0.01959   2.07022
    A8        2.10425   0.16848   0.00000   0.03663   0.03603   2.14028
    A9        2.08913  -0.07815   0.00000  -0.01673  -0.01649   2.07264
   A10        2.09355   0.04774   0.00000   0.01095   0.01090   2.10445
   A11        2.09357   0.04766   0.00000   0.01088   0.01083   2.10440
   A12        2.09606  -0.09540   0.00000  -0.02183  -0.02173   2.07433
   A13        2.10174   0.00465   0.00000   0.00088   0.00072   2.10247
   A14        2.09060  -0.00460   0.00000  -0.00096  -0.00088   2.08972
   A15        2.09084  -0.00005   0.00000   0.00008   0.00015   2.09099
   A16        2.10228  -0.01617   0.00000  -0.00439  -0.00447   2.09782
   A17        2.09047   0.00684   0.00000   0.00191   0.00195   2.09242
   A18        2.09044   0.00933   0.00000   0.00248   0.00252   2.09295
   A19        2.08636  -0.02974   0.00000  -0.00657  -0.00654   2.07983
   A20        2.09808   0.27019   0.00000   0.06142   0.06142   2.15950
   A21        2.09874  -0.24049   0.00000  -0.05485  -0.05491   2.04383
   A22        2.10185   0.00267   0.00000   0.00025   0.00011   2.10196
   A23        2.09062  -0.00360   0.00000  -0.00064  -0.00057   2.09005
   A24        2.09071   0.00093   0.00000   0.00039   0.00046   2.09117
   A25        2.10206  -0.01207   0.00000  -0.00344  -0.00354   2.09852
   A26        2.09067   0.00728   0.00000   0.00201   0.00205   2.09272
   A27        2.09045   0.00478   0.00000   0.00144   0.00148   2.09193
   A28        2.09333   0.06954   0.00000   0.01558   0.01559   2.10892
   A29        2.09510  -0.03095   0.00000  -0.00692  -0.00692   2.08818
   A30        2.09475  -0.03860   0.00000  -0.00866  -0.00866   2.08609
   A31        1.90854  -0.09049   0.00000  -0.02067  -0.02146   1.88708
   A32        1.91459  -0.00474   0.00000  -0.00062  -0.00002   1.91458
   A33        1.91007   0.10570   0.00000   0.02307   0.02325   1.93331
   A34        1.91174  -0.17329   0.00000  -0.04029  -0.04004   1.87170
   A35        1.90620  -0.08203   0.00000  -0.01876  -0.01821   1.88799
   A36        1.91267   0.24247   0.00000   0.05415   0.05360   1.96627
   A37        1.87050  -0.00948   0.00000  -0.00209  -0.00209   1.86841
   A38        2.09560   0.02907   0.00000   0.00641   0.00641   2.10201
   A39        1.87050  -0.01019   0.00000  -0.00224  -0.00224   1.86825
   A40        1.87050  -0.00749   0.00000  -0.00163  -0.00163   1.86887
   A41        1.87678   0.00084   0.00000   0.00007   0.00006   1.87685
   A42        1.87050  -0.00471   0.00000  -0.00097  -0.00097   1.86953
   A43        1.87069  -0.01843   0.00000  -0.00424  -0.00424   1.86646
   A44        2.09476   0.03341   0.00000   0.00744   0.00744   2.10220
   A45        1.87069  -0.00988   0.00000  -0.00208  -0.00210   1.86859
   A46        1.87069  -0.00542   0.00000  -0.00118  -0.00117   1.86952
   A47        1.87692  -0.01240   0.00000  -0.00315  -0.00315   1.87377
   A48        1.87069   0.00838   0.00000   0.00217   0.00216   1.87286
   A49        1.91073   0.01062   0.00000   0.00243   0.00243   1.91316
   A50        1.91043  -0.00314   0.00000  -0.00074  -0.00073   1.90969
   A51        1.91063   0.01415   0.00000   0.00324   0.00323   1.91386
   A52        1.91071  -0.00567   0.00000  -0.00131  -0.00131   1.90939
   A53        1.91061  -0.00888   0.00000  -0.00198  -0.00199   1.90863
   A54        1.91069  -0.00709   0.00000  -0.00163  -0.00163   1.90906
   A55        1.91084  -0.00185   0.00000  -0.00044  -0.00044   1.91040
   A56        1.91047   0.00765   0.00000   0.00174   0.00174   1.91221
   A57        1.91054   0.01622   0.00000   0.00371   0.00371   1.91425
   A58        1.91064  -0.00559   0.00000  -0.00131  -0.00130   1.90933
   A59        1.91064  -0.00755   0.00000  -0.00172  -0.00172   1.90892
   A60        1.91068  -0.00888   0.00000  -0.00199  -0.00199   1.90868
   A61        1.91120  -0.20118   0.00000  -0.04410  -0.04248   1.86873
   A62        1.91112   0.10230   0.00000   0.02193   0.02070   1.93182
   A63        1.90915  -0.12107   0.00000  -0.02814  -0.02776   1.88139
   A64        1.91041  -0.04991   0.00000  -0.01172  -0.01131   1.89911
   A65        1.91110   0.42092   0.00000   0.09729   0.09645   2.00755
   A66        1.91082  -0.15101   0.00000  -0.03523  -0.03528   1.87553
   A67        2.63973   0.39313   0.00000   0.09077   0.09177   2.73150
   A68        1.91017  -0.27234   0.00000  -0.06054  -0.05947   1.85070
   A69        1.91029  -0.01686   0.00000  -0.00487  -0.00505   1.90524
   A70        1.91205   0.39034   0.00000   0.08921   0.08929   2.00135
   A71        1.91075   0.05982   0.00000   0.01277   0.01211   1.92286
   A72        1.91011   0.10038   0.00000   0.02360   0.02300   1.93311
   A73        1.91043  -0.26139   0.00000  -0.06019  -0.05952   1.85091
   A74        2.41504   0.45373   0.00000   0.10276   0.10397   2.51901
   A75        2.09475  -0.06165   0.00000  -0.01333  -0.01341   2.08134
   A76        2.09423   0.06767   0.00000   0.01461   0.01453   2.10876
   A77        2.09421  -0.00605   0.00000  -0.00129  -0.00132   2.09289
   A78        2.09448   0.01451   0.00000   0.00316   0.00318   2.09766
   A79        2.09436  -0.00814   0.00000  -0.00178  -0.00180   2.09256
   A80        2.09435  -0.00638   0.00000  -0.00138  -0.00139   2.09295
   A81        2.09443  -0.00924   0.00000  -0.00199  -0.00197   2.09246
   A82        2.09453   0.00243   0.00000   0.00049   0.00047   2.09500
   A83        2.09422   0.00680   0.00000   0.00149   0.00147   2.09569
   A84        2.09447  -0.00782   0.00000  -0.00177  -0.00177   2.09270
   A85        2.09457   0.00422   0.00000   0.00096   0.00095   2.09552
   A86        2.09414   0.00360   0.00000   0.00082   0.00081   2.09496
   A87        2.09440   0.00910   0.00000   0.00202   0.00203   2.09643
   A88        2.09443  -0.00460   0.00000  -0.00102  -0.00103   2.09340
   A89        2.09436  -0.00450   0.00000  -0.00100  -0.00100   2.09336
   A90        2.09438  -0.00052   0.00000  -0.00014  -0.00014   2.09423
   A91        2.09443  -0.00008   0.00000  -0.00001  -0.00000   2.09442
   A92        2.09438   0.00060   0.00000   0.00015   0.00015   2.09453
   A93        2.09345  -0.09444   0.00000  -0.02045  -0.02055   2.07290
   A94        2.09477   0.15756   0.00000   0.03400   0.03389   2.12866
   A95        2.09497  -0.06312   0.00000  -0.01355  -0.01357   2.08141
   A96        2.09420   0.02977   0.00000   0.00657   0.00660   2.10079
   A97        2.09446  -0.01445   0.00000  -0.00319  -0.00322   2.09124
   A98        2.09453  -0.01532   0.00000  -0.00339  -0.00341   2.09112
   A99        2.09404   0.03188   0.00000   0.00703   0.00706   2.10110
   A100       2.09460   0.01408   0.00000   0.00332   0.00330   2.09790
   A101       2.09455  -0.04596   0.00000  -0.01036  -0.01038   2.08417
   A102       2.09414   0.00751   0.00000   0.00155   0.00155   2.09569
[...]
 4,0.00000248,0.00001141,-0.00003068,-0.00000084,0.00000784,0.00001575,
 0.00000180,-0.00000109,-0.00000248,-0.00000598,0.00000878,-0.00000834,
 0.00000616,-0.00000459,-0.00000593,0.00051724,0.00026838,0.00027889,0.
 00146627,-0.00114414,-0.00132832,-0.00059083,0.00288916,0.00281396,-0.
 00523032,0.00037593,0.00023165,-0.00039637,0.00007340,0.00003345,-0.01
 636983,-0.00491668,-0.00551545,-0.00096430,-0.00023429,-0.00032730,-0.
 32599053,-0.03753773,-0.04585195,0.00084562,-0.00021248,-0.00012406,0.
 00102785,0.00003555,0.00015776,0.34571749,0.00000581,-0.00000027,-0.00
 000101,-0.00001543,0.00000629,0.00000158,-0.00000862,0.00000172,-0.000
 00548,-0.00000099,-0.00000271,-0.00000094,0.00000086,-0.00000187,0.000
 00210,-0.00000435,0.00000041,-0.00000015,-0.00000079,-0.00000187,0.000
 00023,0.00001038,-0.00002607,0.00003451,-0.00000301,-0.00000282,0.0000
 0155,-0.00000040,-0.00000036,0.00000041,-0.00000037,-0.00000028,0.0000
 0024,0.00000561,0.00000190,0.00000051,-0.00000131,0.00000240,-0.000002
 97,-0.00000023,-0.00000007,0.00000016,0.00000038,-0.00000016,0.,0.0000
 0515,-0.00000081,-0.00000194,0.00001901,-0.00000790,0.00000919,-0.0001
 4648,-0.00001987,-0.00002128,-0.00001283,0.00000568,-0.00000849,0.0000
 0412,-0.00000111,0.00000028,-0.00000504,-0.00000294,-0.00004993,-0.000
 00204,-0.00000006,0.00000870,0.00000159,-0.00000149,0.00000287,0.00000
 242,0.00000164,0.00000024,-0.00000064,-0.00000239,0.00000097,-0.000000
 67,-0.00000001,-0.00000164,0.00000379,-0.00001875,0.00000958,-0.000000
 28,0.00000886,0.00000025,0.00000413,0.00000702,-0.00000066,-0.00000079
 ,0.00002122,-0.00000537,-0.00000319,0.00000719,-0.00000125,0.00001398,
 -0.00000047,-0.00000005,0.00000216,-0.00000222,0.00000180,-0.00024701,
 -0.00046458,0.00057264,0.00006470,0.00008327,0.00011549,-0.00001727,-0
 .00002013,-0.00003532,0.00000954,0.00000481,0.00000761,0.00001055,0.00
 000234,0.00000629,0.00000789,-0.00000209,0.00002584,-0.00000362,-0.000
 00120,-0.00000157,0.00000363,0.00000292,0.00000045,-0.00005592,-0.0000
 4413,-0.00003861,-0.00000372,0.00000536,-0.00001929,0.00000813,0.00001
 145,0.00001609,0.00000131,0.00000273,0.00000186,-0.00000413,-0.0000101
 6,0.00000836,0.00000506,-0.00001160,-0.00000782,0.00043921,-0.00089290
 ,-0.00017234,-0.00016088,0.00113344,-0.00639544,0.00194876,0.00206976,
 -0.00536569,-0.02151589,0.00080148,-0.00212501,-0.00110636,0.00007622,
 -0.00024391,0.01718702,0.00564598,0.00379748,0.00092362,0.00024536,0.0
 0006130,-0.03770425,-0.05292316,-0.01880617,0.00031055,-0.00143372,0.0
 0256129,-0.00049365,-0.00146612,0.00246950,0.04050428,0.04721981,-0.00
 000501,-0.00000141,0.00000331,0.00001824,-0.00000387,-0.00000120,-0.00
 000024,-0.00000118,0.00000249,0.00000152,0.00000238,-0.00000215,-0.000
 00082,-0.00000033,0.00000017,0.00000259,-0.00000018,-0.00000058,0.0000
 0076,0.00000066,0.00000020,0.00003296,0.00002817,-0.00000118,-0.000004
 82,-0.00000092,-0.00000097,-0.00000094,0.00000048,-0.00000001,-0.00000
 061,-0.00000071,0.00000041,0.00000568,-0.00000412,0.00000402,-0.000012
 55,0.00000635,-0.00001059,-0.00000142,-0.00000053,0.00000030,-0.000001
 33,0.00000121,-0.00000099,-0.00000113,-0.00000725,0.00000249,-0.000017
 13,-0.00000592,0.00000224,0.00006466,0.00006895,0.00005169,0.00000111,
 0.00000385,0.00000195,-0.00000157,0.00000146,-0.00000088,0.00000118,-0
 .00001639,-0.00000623,0.00000246,0.00000323,0.00000619,-0.00000042,-0.
 00000056,-0.00000077,-0.00000151,-0.00000072,-0.00000046,0.00000029,0.
 00000009,0.00000076,0.00000018,0.00000115,0.00000003,0.00001031,-0.000
 01623,0.00001355,-0.00000056,-0.00000071,-0.00000056,0.00000303,0.0000
 0933,-0.00000614,-0.00001022,0.00000830,-0.00000072,0.00000914,0.00001
 241,-0.00000908,0.00001475,0.00000052,0.00000024,-0.00000294,-0.000005
 45,0.00000264,0.00023465,0.00059970,-0.00037506,0.00001357,-0.00006413
 ,-0.00004195,-0.00011760,0.00006309,0.00004902,0.00000851,-0.00000281,
 0.00000593,-0.00000106,0.00000257,0.00000618,-0.00000888,0.00000781,0.
 00000404,0.00000340,-0.00000179,-0.00000543,-0.00000064,-0.00000094,-0
 .00000211,0.00000725,0.00000663,0.00000227,0.00001225,0.00000068,-0.00
 001488,-0.00001295,0.00000710,-0.00000701,-0.00000033,-0.00000421,-0.0
 0000210,-0.00000964,0.00001149,0.00001255,0.00000586,-0.00000772,0.000
 00138,0.00015008,-0.00028398,-0.00103934,-0.00046624,-0.00638964,0.000
 64458,0.00185656,-0.00535490,0.00185970,-0.02255303,-0.00172099,0.0001
 5229,-0.00120492,-0.00018695,-0.00007784,0.01709916,0.00345476,0.00632
 991,0.00091606,0.00001140,0.00033771,-0.04573194,-0.01884392,-0.056359
 79,0.00041141,0.00254661,-0.00119711,-0.00037256,0.00247544,-0.0013432
 3,0.04966109,0.02360310,0.05100509,0.00012129,-0.00001254,-0.00003727,
 -0.00029036,0.00024335,-0.00002405,0.00009150,0.00008398,0.00001520,0.
 00005487,0.00000571,-0.00000017,0.00003835,-0.00004057,0.00002271,-0.0
 0004823,0.00000553,-0.00003024,-0.00000946,-0.00002001,0.00001904,0.00
 147438,0.00071208,-0.00010722,-0.00005614,-0.00001100,-0.00004524,-0.0
 0001591,0.00000290,0.00001088,-0.00000821,-0.00000786,0.00001017,0.000
 03665,0.00004352,0.00002838,-0.00008891,-0.00028014,-0.00021170,-0.000
 01517,-0.00000419,-0.00000230,-0.00003562,0.00002189,0.00000589,0.0000
 1336,0.00002263,0.00000124,0.00037264,-0.00020498,-0.00004796,-0.00193
 276,-0.00127351,-0.00419938,-0.00013363,0.00002947,-0.00013685,0.00007
 834,-0.00006815,0.00000358,-0.30191637,-0.01998870,-0.05329276,-0.0087
 4324,-0.00083612,-0.00117359,0.00003568,-0.00003300,0.00005062,0.00001
 320,0.00003025,0.00000839,0.00000090,-0.00002464,0.00000033,0.00000204
 ,0.00000194,-0.00000341,-0.01634727,-0.00091865,-0.00175758,0.00037791
 ,-0.00009504,0.00044459,-0.00017548,0.00259587,0.00190586,0.00078825,-
 0.00001921,-0.00030285,-0.00011179,-0.00009251,0.00005877,0.00000631,0
 .00001864,0.00003835,0.00002459,-0.00001157,-0.00002471,-0.00068731,-0
 .00073101,0.00036898,0.00006658,0.00010317,-0.00004073,-0.00001262,0.0
 0014824,-0.00005111,-0.00012507,0.00004533,0.00003350,0.00005759,0.000
 01350,-0.00000264,0.00001257,-0.00012989,-0.00006251,-0.00000988,0.000
 00634,0.00001336,-0.00000004,0.00001772,0.00001825,0.00002368,0.000060
 71,0.00007495,0.00008957,-0.00009687,-0.00011595,-0.00000698,0.0000061
 4,-0.00000908,0.00000109,0.00000422,0.00000469,0.00001226,-0.00000928,
 -0.00000392,-0.00000745,0.00000773,0.00000923,-0.00049436,-0.00042430,
 0.00191843,0.00067374,-0.00038250,0.00009744,-0.00121839,-0.00125495,0
 .00060309,-0.00042101,-0.00017053,-0.00025908,0.00000876,0.00003975,-0
 .00002269,0.00061326,-0.00029571,0.00014463,-0.00005088,0.00017489,-0.
 00003382,-0.00016565,0.00038635,0.00033165,-0.00000829,0.00000259,0.00
 000110,0.00001549,0.00002782,-0.00003489,-0.00001102,0.00001772,-0.000
 00716,0.32807848,0.00028228,0.00004461,-0.00016248,-0.00034693,0.00019
 844,-0.00001435,-0.00003932,-0.00006918,-0.00007300,0.00020159,-0.0000
 1233,-0.00002334,-0.00004091,-0.00011887,0.00009162,-0.00013807,0.0000
 6169,-0.00007041,-0.00001070,-0.00001284,0.00002585,0.00012479,0.00058
 177,0.00030159,-0.00005880,0.00000862,-0.00001285,-0.00001725,-0.00000
 261,0.00000548,-0.00000937,-0.00000771,0.00000443,0.00004046,0.0000433
 3,-0.00003220,-0.00015535,0.00000298,-0.00024855,-0.00001491,0.0000004
 3,-0.00000505,-0.00002139,0.00001789,0.00000456,0.00001269,0.00000080,
 0.00000122,0.00046547,0.00002704,0.00011865,-0.00074302,0.00018660,0.0
 0086376,-0.00014541,-0.00004602,-0.00010616,0.00008342,-0.00010409,-0.
 00000989,-0.02204027,-0.05347129,-0.00495816,-0.02859842,-0.00046764,-
 0.00688230,0.00004785,-0.00003343,0.00005750,0.00001535,0.00003439,0.0
 0001048,0.00000064,-0.00002114,-0.00000246,0.00000073,0.00000295,-0.00
 000018,0.02712436,0.00150696,0.00383870,-0.00083766,0.00096537,0.00028
 751,0.00297929,-0.00354847,-0.00278053,-0.00057485,0.00096201,0.000913
 49,-0.00011950,-0.00011381,0.00001888,-0.00001269,0.00001781,0.0000081
 2,0.00003044,0.00001495,-0.00001761,0.00058606,-0.00015103,0.00058058,
 -0.00001495,0.00001849,-0.00013755,-0.00000619,-0.00005764,0.00005457,
 -0.00009220,0.00005657,0.00006064,0.00006542,0.00000900,0.00002249,0.0
 0012384,-0.00032147,-0.00032022,-0.00001739,0.00001682,0.00001238,-0.0
 0000453,0.00002482,0.00002076,0.00001803,0.00008929,0.00011871,0.00009
 919,-0.00004993,-0.00004160,-0.00003037,-0.00000235,0.00001021,-0.0000
 0158,0.00000868,0.00000741,0.00001049,0.00000363,-0.00002295,-0.000015
 17,0.00002009,0.00001478,-0.00024492,-0.00001826,0.00108743,-0.0000268
 5,0.00004973,0.00010216,-0.00050546,-0.00053452,0.00020831,0.00014820,
 -0.00002385,0.00004878,0.00001373,-0.00001687,-0.00006969,-0.00030383,
 -0.00003249,-0.00011479,0.00003819,-0.00030730,0.00005250,0.00006283,-
 0.00009636,-0.00005373,0.00002827,-0.00000881,-0.00001920,0.00002262,0
 .00003026,0.00000831,0.00003826,-0.00000349,-0.00000972,0.02256535,0.0
 5464968,0.00004605,-0.00008434,0.00009949,-0.00016733,0.00018498,-0.00
 003820,0.00002838,0.00026653,-0.00009616,-0.00002101,-0.00002158,0.000
 05068,0.00003047,0.00002595,0.00000279,-0.00002756,-0.00003313,0.00002
 344,-0.00001150,-0.00003052,0.00000548,0.00112027,0.00328120,-0.005817
 97,-0.00015578,0.00000007,-0.00009531,-0.00002911,-0.00001221,0.000006
 81,-0.00000353,-0.00001447,0.00001200,-0.00010007,0.00052508,0.0000170
 0,-0.00178230,-0.00093669,-0.00037455,-0.00003106,-0.00003777,-0.00001
 509,-0.00020043,0.00003646,-0.00003943,0.00011928,-0.00000680,-0.00010
 133,0.00018800,-0.00003260,0.00004494,-0.03627718,-0.00759357,-0.01803
 520,-0.00000754,-0.00001787,-0.00004793,0.00000552,-0.00001349,0.00002
 710,-0.04490421,-0.00123310,-0.05760210,0.01110414,-0.00036908,0.00339
 855,-0.00000364,-0.00000788,0.00001216,0.00000384,0.00000538,-0.000000
 83,0.00000207,-0.00000652,0.00000104,0.00000246,-0.00000682,-0.0000054
 0,0.01519258,0.00099028,0.00336980,-0.00031276,0.00058895,0.00047432,0
 .00165413,-0.00299340,-0.00071540,-0.00066459,0.00010387,0.00024212,-0
 .00006998,0.00000579,-0.00001043,-0.00000923,0.00003237,0.00007569,0.0
 0001881,-0.00002182,0.00000701,-0.00195746,-0.00071839,0.00068274,-0.0
 0007571,-0.00020805,0.00022570,0.00018529,0.00040193,-0.00018787,-0.00
 013234,0.00001625,0.00003378,0.00004766,0.00000241,0.00001652,0.000075
 87,-0.00004110,-0.00020622,-0.00000663,0.00001612,0.00000230,-0.000000
 13,0.00001497,0.00001681,0.00001619,0.00005751,0.00004487,0.00001063,-
 0.00015809,0.00011445,-0.00000136,-0.00000547,0.00000162,0.00000107,0.
 00000252,0.00000493,0.00001302,-0.00001454,0.00000845,-0.00000608,0.00
 000546,0.00001055,0.00048226,0.00048959,-0.00040772,0.00032887,-0.0002
 9110,-0.00018284,0.00063851,0.00063939,0.00006447,-0.00001250,-0.00001
 536,-0.00007350,-0.00001809,0.00000641,0.00003685,-0.00001830,0.000076
 59,0.00005494,0.00002661,-0.00007458,0.00006654,-0.00005573,0.00003062
 ,-0.00001730,-0.00002687,0.00001470,0.00000757,-0.00002898,-0.00003410
 ,-0.00001501,-0.00002920,-0.00001094,0.00000393,0.05579503,0.00722761,
 0.07481870,-0.00227003,-0.00019605,-0.00098333,0.00066663,-0.00054004,
 -0.00117116,0.00007799,0.00014927,-0.00023159,0.00021325,0.00015005,-0
 .00014643,-0.00000808,-0.00034937,0.00027483,-0.00057179,0.00050616,-0
 .00007655,-0.00309603,-0.00028127,-0.00199592,0.00021661,-0.00012070,0
 .00013355,-0.00002675,-0.00012512,0.00011753,0.00001173,-0.00001869,-0
 .00001361,0.00003412,0.00000174,-0.00001770,0.00018298,0.00007003,0.00
 000484,-0.00020486,0.00004641,-0.00010063,0.00001050,-0.00000194,0.000
 01299,0.00000112,-0.00000577,0.00000441,0.00000396,-0.00001550,0.00000
 043,0.00453364,-0.00016767,-0.01259762,-0.00010911,0.00004247,-0.00012
 332,-0.10766268,0.01858363,0.11173017,-0.01352137,0.00489743,0.0279273
 8,-0.00004652,-0.00014360,0.00017005,0.00012416,0.00001625,0.00005602,
 0.00270920,-0.00116255,-0.00506423,0.00019385,0.00059790,-0.00026031,0
 .00023042,0.00077374,0.00021461,0.00065449,-0.00100498,-0.00043371,0.0
 0002281,0.00002699,-0.00003251,0.00000634,-0.00002483,-0.00002760,-0.0
 0001722,0.00000718,0.00000596,-0.00001063,0.00002648,0.00000243,-0.001
 09577,0.00196773,-0.00134989,0.00021867,-0.00000757,-0.00064240,0.0000
 4204,-0.00006825,0.00014016,-0.00002630,-0.00000029,-0.00003825,0.0000
 1014,0.00000852,-0.00001361,0.00000418,-0.00000409,0.00000491,0.000075
 06,-0.00006076,0.00046906,0.00021279,-0.00018308,-0.00022218,-0.000271
 99,-0.00015799,0.00028243,-0.00028697,-0.00000363,-0.00002578,0.000011
 78,0.00001649,0.00000807,0.00031030,-0.00019158,-0.00001867,-0.0000266
 9,0.00011990,0.00008565,0.00006979,0.00018954,0.00017243,-0.00001007,0
 .00000519,0.00001453,-0.00002696,-0.00001698,-0.00000403,-0.00002121,0
 .00001204,0.00000681,-0.00000243,-0.00000159,0.00000648,0.00000207,0.0
 0000474,0.00001367,-0.00000127,0.00000628,-0.00000774,-0.00000296,-0.0
 0000307,0.00000423,-0.00000671,0.00000601,-0.00001635,-0.00000292,-0.0
 0000018,-0.00001054,0.00000464,-0.00000962,0.00000163,0.00000186,0.000
 00159,0.00000078,0.00000877,0.00000369,-0.00000493,-0.00000236,-0.0000
 0643,-0.00000036,-0.00000155,-0.00000118,0.00000145,-0.00003585,-0.000
 04157,0.00001119,0.11850122,0.00025424,0.00075021,-0.00042364,-0.00130
 311,0.00084706,0.00084241,-0.00008693,-0.00033690,0.00007189,-0.000165
 36,-0.00008518,0.00004986,0.00008399,0.00015937,-0.00012457,0.00022748
 ,-0.00028287,0.00008725,-0.00044189,0.00011163,-0.00010794,0.00005433,
 0.00016796,-0.00000739,-0.00001377,0.00005418,-0.00004378,0.00001556,-
 0.00001590,0.00001795,-0.00000271,0.00002559,0.00001597,-0.00006786,-0
 .00003934,0.00000143,0.00004692,-0.00004988,0.00002389,0.00000371,0.00
 000087,-0.00000412,-0.00000096,-0.00000174,0.00000291,0.00000054,0.000
 00003,0.00001187,-0.01144013,0.00010405,0.02544348,0.00002888,-0.00002
 455,-0.00014796,0.02183063,-0.05630237,-0.04072638,-0.00269429,0.00109
 325,0.00537172,-0.00005012,-0.00022385,0.00021771,0.00002537,-0.000000
 19,0.00010926,0.01642547,-0.00650655,-0.02734676,-0.00034712,0.0009945
 2,0.00031604,0.00021750,0.00134368,0.00050664,-0.00149447,-0.00613016,
 -0.00200173,0.00002655,0.00003907,-0.00005343,0.00000326,-0.00002275,-
 0.00001889,-0.00000707,-0.00000291,0.00000735,-0.00001167,0.00002837,0
 .00000705,0.00212077,-0.00287370,0.00183826,-0.00030063,0.00015010,0.0
 0127084,0.00001586,0.00001081,0.00054355,-0.00001426,0.00001465,-0.000
 02415,0.00000471,0.00001681,-0.00001756,-0.00000257,-0.00001262,0.0000
 0067,0.00068116,-0.00023152,-0.00006162,-0.00013136,0.00002645,-0.0001
 0600,-0.00007575,0.00008942,-0.00005221,-0.00004827,0.00008289,0.00001
 057,0.00003595,-0.00002344,0.00006203,0.00001045,-0.00004196,0.0000009
 7,0.00001951,0.00002063,0.00004599,-0.00004158,0.00001728,0.00001468,-
 0.00002694,0.00000473,0.00001823,-0.00002843,-0.00000473,0.00000442,-0
 .00000866,0.00000219,0.00000414,-0.00000002,-0.00000228,-0.00000071,-0
 .00000123,0.00001479,0.00001610,-0.00000054,0.00000647,-0.00000158,0.0
 0000401,-0.00000492,-0.00000308,0.00000479,0.00000122,-0.00001034,-0.0
 0000539,-0.00000168,-0.00000621,0.00000222,-0.00000682,-0.00000006,-0.
 00000116,-0.00000127,-0.00000207,0.00000232,0.00000082,-0.00000014,-0.
 00000142,-0.00000243,-0.00000039,-0.00000109,-0.00000148,-0.00000073,-
 0.00000792,-0.00000188,-0.00000360,-0.02332151,0.06705676,0.00032660,0
 .00062228,0.00069996,0.00298515,-0.00079107,-0.00001624,-0.00037760,0.
 00058226,-0.00004854,0.00026088,0.00006771,-0.00009051,-0.00000455,-0.
 00024061,0.00010895,-0.00014618,-0.00023767,0.00039098,-0.00071510,-0.
 00105362,0.00018948,0.00016584,-0.00023638,0.00017738,-0.00005720,-0.0
 0010804,0.00001892,0.00003270,-0.00005151,0.00002732,-0.00000830,0.000
 01429,-0.00000414,0.00014573,0.00001169,0.00006523,-0.00008058,0.00006
 136,-0.00007690,0.00000324,-0.00000703,-0.00000533,-0.00000034,-0.0000
 0054,0.00000429,-0.00000152,-0.00001513,-0.00000614,0.00919319,0.00167
 918,-0.02488410,-0.00021850,0.00011535,0.00012548,0.10389708,-0.035348
 57,-0.24836081,-0.00109079,0.00087322,0.00601118,0.00002170,0.00017222
 ,-0.00012686,0.00003214,0.00003722,-0.00008919,0.00505663,-0.00244546,
 -0.00759086,-0.00013907,0.00031581,0.00001281,-0.00004468,-0.00008164,
 0.00091537,-0.00051994,-0.00172411,0.00095270,-0.00000426,-0.00000661,
 0.00001912,0.00000127,0.00001684,0.00001843,-0.00000258,0.00000719,-0.
 00000715,0.00000216,-0.00001678,0.00000218,-0.00255237,0.00381331,-0.0
 0032187,0.00043789,-0.00019644,-0.00132455,0.00000023,-0.00014635,-0.0
 0011585,0.00002434,-0.00000461,-0.00000892,0.00000236,-0.00001920,0.00
 001877,0.00000457,0.00001129,0.00000652,-0.00073785,0.00013258,0.00037
 462,0.00031174,-0.00003558,-0.00006347,-0.00000442,-0.00013757,-0.0000
 1824,-0.00015898,-0.00000817,-0.00002368,-0.00001213,0.00000956,0.0000
 2003,0.00008947,-0.00004004,-0.00001502,-0.00002275,-0.00000299,-0.000
 01704,0.00007811,0.00006480,0.00007438,0.00002233,-0.00001352,-0.00001
 178,0.00004101,0.00000639,0.00000350,0.00001737,-0.00000155,0.00000109
 ,0.00000924,-0.00000159,0.00000169,-0.00000359,-0.00001848,-0.00002765
 ,-0.00000226,-0.00000646,0.00000117,-0.00000274,0.00001051,0.00000193,
 -0.00000223,-0.00000150,0.00001778,0.00000396,0.00000257,0.00000631,-0
 .00000381,0.00000829,0.00000232,-0.00000309,0.00000051,0.00000003,-0.0
 0000728,-0.00000354,0.00000289,0.00000145,0.00000369,0.00000152,0.0000
 0156,0.00000077,0.00000112,0.00000254,-0.00000046,-0.00000033,-0.11624
 777,0.03436190,0.27297974\\-0.00000092,-0.00000303,-0.00000138,-0.0000
 0357,0.00000555,-0.00000369,0.00001101,-0.00000632,0.00000271,-0.00000
 753,-0.00000414,0.00000003,0.00000108,0.00000212,-0.00000302,0.0000033
 2,-0.00000385,0.00000226,0.00000225,-0.00000048,0.00000229,-0.00000861
 ,-0.00000068,0.00000009,0.00000102,-0.00000135,0.00000148,0.00000017,-
 0.00000262,-0.00000054,0.00000086,-0.00000234,-0.00000075,-0.00000156,
 -0.00000023,-0.00000117,0.00000093,-0.00000084,0.00000309,-0.00000062,
 -0.00000213,-0.00000024,-0.00000118,-0.00000058,0.00000098,-0.00000111
 ,-0.00000066,0.00000057,0.00000258,0.00000078,-0.00000401,0.00000801,0
 .00000198,0.00000399,0.00000131,-0.00000474,0.00000340,0.00000009,0.00
 000088,-0.00000040,-0.00000070,-0.00000187,-0.00000279,-0.00000002,-0.
 00000097,0.00000041,0.00000028,-0.00000018,-0.00000057,0.00000133,-0.0
 0000027,-0.00000162,0.00000105,-0.00000130,-0.00000111,0.00000145,0.00
 000007,-0.00000045,-0.00000129,-0.00000158,0.00000013,-0.00000084,-0.0
 0000132,0.00000064,-0.00000135,-0.00000044,0.00000098,0.00000003,0.000
 00043,0.00000009,-0.00000219,0.00000379,0.00001104,0.00000253,-0.00000
 241,-0.00000734,-0.00000030,-0.00000003,-0.00000305,-0.00000716,0.0000
 0062,-0.00000069,0.00000070,0.00000248,0.00000113,0.00000055,0.0000005
 4,0.00000068,0.00000046,-0.00000348,-0.00000558,0.00000048,0.00000259,
 0.00000185,0.00000370,0.00000313,-0.00000002,0.00000314,0.00000223,-0.
 00000011,0.00000121,0.00000087,-0.00000126,-0.00000139,0.00000201,0.00
 000091,-0.00000045,-0.00000065,-0.00000040,-0.00000031,-0.00000006,-0.
 00000224,0.00000131,0.00000160,-0.00000097,0.00000059,0.00000124,-0.00
 000025,0.00000124,0.00000206,-0.00000045,-0.00000122,0.00000082,0.0000
 0372,0.00000281,0.00000037,-0.00000164,-0.00000342,-0.00000171,-0.0000
 0262,-0.00000522,0.00000041,-0.00000125,-0.00000085,0.00000106,0.00000
 043,0.00000310,0.00000006,-0.00000017,-0.00000294,0.00000131,0.0000016
 0,-0.00000187,0.00000497,0.00000393,0.00000028,0.00000209,0.00000013,-
 0.00000219,0.00000118,0.00000112,-0.00000067,0.00000124,-0.00000032,-0
 .00000019,0.00000127,0.00000083,0.00000082,0.00000048,-0.00000039\\\@
 The archive entry for this job was punched.


 KNOWING HOW CONTENTED, FREE, AND JOYFUL IS LIFE IN
 THE REALMS OF SCIENCE, ONE FERVENTLY WISHES THAT
 MANY WOULD ENTER HER PORTALS.
   --  DMITRI IVANOVICH MENDELEEV
 "FIRST PRINCIPLES OF CHEMISTRY", LONGMANS, GREEN,
 AND CO.  LONDON, 1891
 Job cpu time:       0 days 11 hours 24 minutes 51.1 seconds.
 Elapsed time:       0 days  0 hours 42 minutes 55.7 seconds.
 File lengths (MBytes):  RWF=   1937 Int=      0 D2E=      0 Chk=     43 Scr=      1
 Normal termination of Gaussian 16 at Mon Oct 25 09:57:47 2021.
