 Entering Gaussian System, Link 0=/home/rong/g16/g16
 Input=/home/rong/g16/102121/benzbenzNMeCH2CH3.gjf
 Output=/home/rong/g16/102121/benzbenzNMeCH2CH3.log
 Initial command:
 /home/rong/g16/l1.exe "/tmp/Gau-37008.inp" -scrdir="/tmp/"
 Default is to use a total of   8 processors:
                                8 via shared-memory
                                1 via Linda
 Entering Link 1 = /home/rong/g16/l1.exe PID=     37010.
  
 Copyright (c) 1988-2019, Gaussian, Inc.  All Rights Reserved.
  
 This is part of the Gaussian(R) 16 program.  It is based on
 the Gaussian(R) 09 system (copyright 2009, Gaussian, Inc.),
 the Gaussian(R) 03 system (copyright 2003, Gaussian, Inc.),
 the Gaussian(R) 98 system (copyright 1998, Gaussian, Inc.),
 the Gaussian(R) 94 system (copyright 1995, Gaussian, Inc.),
 the Gaussian 92(TM) system (copyright 1992, Gaussian, Inc.),
 the Gaussian 90(TM) system (copyright 1990, Gaussian, Inc.),
 the Gaussian 88(TM) system (copyright 1988, Gaussian, Inc.),
 the Gaussian 86(TM) system (copyright 1986, Carnegie Mellon
 University), and the Gaussian 82(TM) system (copyright 1983,
 Carnegie Mellon University). Gaussian is a federally registered
 trademark of Gaussian, Inc.
  
 This software contains proprietary and confidential information,
 including trade secrets, belonging to Gaussian, Inc.
  
 This software is provided under written license and may be
 used, copied, transmitted, or stored only in accord with that
 written license.
  
 The following legend is applicable only to US Government
 contracts under FAR:
  
                    RESTRICTED RIGHTS LEGEND
  
 Use, reproduction and disclosure by the US Government is
 subject to restrictions as set forth in subparagraphs (a)
 and (c) of the Commercial Computer Software - Restricted
 Rights clause in FAR 52.227-19.
  
 Gaussian, Inc.
 340 Quinnipiac St., Bldg. 40, Wallingford CT 06492
  
  
 ---------------------------------------------------------------
 Warning -- This program may not be used in any manner that
 competes with the business of Gaussian, Inc. or will provide
 assistance to any competitor of Gaussian, Inc.  The licensee
 of this program is prohibited from giving any competitor of
 Gaussian, Inc. access to this program.  By using this program,
 the user acknowledges that Gaussian, Inc. is engaged in the
 business of creating and licensing software in the field of
 computational chemistry and represents and warrants to the
 licensee that it is not a competitor of Gaussian, Inc. and that
 it will not use this program in any manner prohibited above.
 ---------------------------------------------------------------
  

 Cite this work as:
 Gaussian 16, Revision C.01,
 M. J. Frisch, G. W. Trucks, H. B. Schlegel, G. E. Scuseria, 
 M. A. Robb, J. R. Cheeseman, G. Scalmani, V. Barone, 
 G. A. Petersson, H. Nakatsuji, X. Li, M. Caricato, A. V. Marenich, 
 J. Bloino, B. G. Janesko, R. Gomperts, B. Mennucci, H. P. Hratchian, 
 J. V. Ortiz, A. F. Izmaylov, J. L. Sonnenberg, D. Williams-Young, 
 F. Ding, F. Lipparini, F. Egidi, J. Goings, B. Peng, A. Petrone, 
 T. Henderson, D. Ranasinghe, V. G. Zakrzewski, J. Gao, N. Rega, 
 G. Zheng, W. Liang, M. Hada, M. Ehara, K. Toyota, R. Fukuda, 
 J. Hasegawa, M. Ishida, T. Nakajima, Y. Honda, O. Kitao, H. Nakai, 
 T. Vreven, K. Throssell, J. A. Montgomery, Jr., J. E. Peralta, 
 F. Ogliaro, M. J. Bearpark, J. J. Heyd, E. N. Brothers, K. N. Kudin, 
 V. N. Staroverov, T. A. Keith, R. Kobayashi, J. Normand, 
 K. Raghavachari, A. P. Rendell, J. C. Burant, S. S. Iyengar, 
 J. Tomasi, M. Cossi, J. M. Millam, M. Klene, C. Adamo, R. Cammi, 
 J. W. Ochterski, R. L. Martin, K. Morokuma, O. Farkas, 
 J. B. Foresman, and D. J. Fox, Gaussian, Inc., Wallingford CT, 2019.
 
 ******************************************
 Gaussian 16:  ES64L-G16RevC.01  3-Jul-2019
                21-Oct-2021 
 ******************************************
 %mem=15GB
 %chk=benzbenzNMeCH3.chk
 %nprocshared=8
 Will use up to    8 processors via shared memory.
 ----------------------------------------------------
 # opt freq b3lyp/6-31g(d) scrf=(smd,solvent=toluene)
 ----------------------------------------------------
 1/18=20,19=15,26=3,38=1/1,3;
 2/9=110,12=2,17=6,18=5,40=1/2;
 3/5=1,6=6,7=1,11=2,25=1,30=1,70=32201,71=1,72=13,74=-5/1,2,3;
 4//1;
 5/5=2,38=5,53=13/2;
 6/7=2,8=2,9=2,10=2,28=1/1;
 7//1,2,3,16;
 1/18=20,19=15,26=3/3(2);
 2/9=110/2;
 99//99;
 2/9=110/2;
 3/5=1,6=6,7=1,11=2,25=1,30=1,70=32205,71=1,72=13,74=-5/1,2,3;
 4/5=5,16=3,69=1/1;
 5/5=2,38=5,53=13/2;
 7//1,2,3,16;
 1/18=20,19=15,26=3/3(-5);
 2/9=110/2;
 6/7=2,8=2,9=2,10=2,19=2,28=1/1;
 99/9=1/99;
 -----------------
 benzbenzNMeCH2CH3
 -----------------
 Symbolic Z-matrix:
 Charge =  0 Multiplicity = 1
 C                    -2.72059   1.55882   0. 
 C                    -1.32543   1.55882   0. 
 C                    -0.62789   2.76657   0. 
 C                    -1.32554   3.97508  -0.0012 
 C                    -2.72037   3.97501  -0.00168 
 C                    -3.41797   2.7668   -0.00068 
 H                    -3.27035   0.60651   0.00045 
 H                    -0.77592   0.60631   0.00132 
 H                    -3.27049   4.92729  -0.00263 
 H                    -4.51757   2.76698  -0.00086 
 C                     0.91211   2.76669   0.00089 
 H                     1.26936   2.7791   -1.00764 
 H                     1.26842   3.6341    0.51619 
 C                     1.42513   1.5005    0.71165 
 H                     2.47335   1.59863   0.90266 
 H                     0.904     1.37543   1.63777 
 C                     1.1795    0.27308  -0.18541 
 C                     0.67497  -0.90465   0.36674 
 C                     1.46131   0.33879  -1.54989 
 C                     0.45296  -2.01659  -0.44537 
 H                     0.45363  -0.95637   1.44264 
 C                     1.23836  -0.77309  -2.36256 
 C                     0.7344   -1.95072  -1.81054 
 H                     0.05588  -2.94513  -0.01012 
 H                     1.46026  -0.72086  -3.43844 
 H                     0.55922  -2.82756  -2.45067 
 N                    -0.59006   5.24786  -0.00128 
 N                     1.99269   1.57967  -2.13192 
 C                    -1.22379   6.17993  -0.94496 
 H                    -2.10154   6.59804  -0.49813 
 H                    -0.53776   6.96491  -1.18593 
 C                    -0.61302   5.82714   1.34958 
 H                     0.14293   6.58038   1.42754 
 H                    -1.57219   6.26401   1.53406 
 H                    -0.4265    5.05868   2.0704 
 C                    -1.61178   5.42485  -2.22984 
 H                    -0.89406   4.65475  -2.42148 
 H                    -2.58049   4.98718  -2.10761 
 H                    -1.63035   6.10799  -3.05317 
 C                     1.58874   1.67158  -3.54234 
 H                     2.18167   1.0002   -4.12764 
 H                     0.5557    1.40874  -3.63533 
 C                     1.79897   3.11243  -4.04368 
 H                     2.41771   3.09965  -4.91655 
 H                     0.85177   3.54813  -4.28427 
 H                     2.27349   3.69062  -3.27855 
 C                     3.45991   1.57411  -2.0418 
 H                     3.86829   1.08745  -2.90279 
 H                     3.81837   2.58132  -1.99784 
 H                     3.76105   1.0495   -1.15919 
 

 GradGradGradGradGradGradGradGradGradGradGradGradGradGradGradGradGradGrad
 Berny optimization.
 Initialization pass.
                           ----------------------------
                           !    Initial Parameters    !
                           ! (Angstroms and Degrees)  !
 --------------------------                            --------------------------
 ! Name  Definition              Value          Derivative Info.                !
 --------------------------------------------------------------------------------
 ! R1    R(1,2)                  1.3952         estimate D2E/DX2                !
 ! R2    R(1,6)                  1.3948         estimate D2E/DX2                !
 ! R3    R(1,7)                  1.0996         estimate D2E/DX2                !
 ! R4    R(2,3)                  1.3947         estimate D2E/DX2                !
 ! R5    R(2,8)                  1.0997         estimate D2E/DX2                !
 ! R6    R(3,4)                  1.3954         estimate D2E/DX2                !
 ! R7    R(3,11)                 1.54           estimate D2E/DX2                !
 ! R8    R(4,5)                  1.3948         estimate D2E/DX2                !
 ! R9    R(4,27)                 1.47           estimate D2E/DX2                !
 ! R10   R(5,6)                  1.3951         estimate D2E/DX2                !
 ! R11   R(5,9)                  1.0998         estimate D2E/DX2                !
 ! R12   R(6,10)                 1.0996         estimate D2E/DX2                !
 ! R13   R(11,12)                1.07           estimate D2E/DX2                !
 ! R14   R(11,13)                1.07           estimate D2E/DX2                !
 ! R15   R(11,14)                1.54           estimate D2E/DX2                !
 ! R16   R(14,15)                1.07           estimate D2E/DX2                !
 ! R17   R(14,16)                1.07           estimate D2E/DX2                !
 ! R18   R(14,17)                1.54           estimate D2E/DX2                !
 ! R19   R(17,18)                1.3952         estimate D2E/DX2                !
 ! R20   R(17,19)                1.3948         estimate D2E/DX2                !
 ! R21   R(18,20)                1.3947         estimate D2E/DX2                !
 ! R22   R(18,21)                1.0997         estimate D2E/DX2                !
 ! R23   R(19,22)                1.3951         estimate D2E/DX2                !
 ! R24   R(19,28)                1.47           estimate D2E/DX2                !
 ! R25   R(20,23)                1.3954         estimate D2E/DX2                !
 ! R26   R(20,24)                1.0997         estimate D2E/DX2                !
 ! R27   R(22,23)                1.3948         estimate D2E/DX2                !
 ! R28   R(22,25)                1.0998         estimate D2E/DX2                !
 ! R29   R(23,26)                1.0997         estimate D2E/DX2                !
 ! R30   R(27,29)                1.47           estimate D2E/DX2                !
 ! R31   R(27,32)                1.47           estimate D2E/DX2                !
 ! R32   R(28,40)                1.47           estimate D2E/DX2                !
 ! R33   R(28,47)                1.47           estimate D2E/DX2                !
 ! R34   R(29,30)                1.07           estimate D2E/DX2                !
 ! R35   R(29,31)                1.07           estimate D2E/DX2                !
 ! R36   R(29,36)                1.54           estimate D2E/DX2                !
 ! R37   R(32,33)                1.07           estimate D2E/DX2                !
 ! R38   R(32,34)                1.07           estimate D2E/DX2                !
 ! R39   R(32,35)                1.07           estimate D2E/DX2                !
 ! R40   R(36,37)                1.07           estimate D2E/DX2                !
 ! R41   R(36,38)                1.07           estimate D2E/DX2                !
 ! R42   R(36,39)                1.07           estimate D2E/DX2                !
 ! R43   R(40,41)                1.07           estimate D2E/DX2                !
 ! R44   R(40,42)                1.07           estimate D2E/DX2                !
 ! R45   R(40,43)                1.54           estimate D2E/DX2                !
 ! R46   R(43,44)                1.07           estimate D2E/DX2                !
 ! R47   R(43,45)                1.07           estimate D2E/DX2                !
 ! R48   R(43,46)                1.07           estimate D2E/DX2                !
 ! R49   R(47,48)                1.07           estimate D2E/DX2                !
 ! R50   R(47,49)                1.07           estimate D2E/DX2                !
 ! R51   R(47,50)                1.07           estimate D2E/DX2                !
 ! A1    A(2,1,6)              119.9985         estimate D2E/DX2                !
 ! A2    A(2,1,7)              119.9972         estimate D2E/DX2                !
 ! A3    A(6,1,7)              120.0043         estimate D2E/DX2                !
 ! A4    A(1,2,3)              120.0086         estimate D2E/DX2                !
 ! A5    A(1,2,8)              119.9808         estimate D2E/DX2                !
 ! A6    A(3,2,8)              120.0106         estimate D2E/DX2                !
 ! A7    A(2,3,4)              119.9942         estimate D2E/DX2                !
 ! A8    A(2,3,11)             120.0128         estimate D2E/DX2                !
 ! A9    A(4,3,11)             119.993          estimate D2E/DX2                !
 ! A10   A(3,4,5)              119.994          estimate D2E/DX2                !
 ! A11   A(3,4,27)             119.9811         estimate D2E/DX2                !
 ! A12   A(5,4,27)             120.0249         estimate D2E/DX2                !
 ! A13   A(4,5,6)              120.0047         estimate D2E/DX2                !
 ! A14   A(4,5,9)              120.0113         estimate D2E/DX2                !
 ! A15   A(6,5,9)              119.984          estimate D2E/DX2                !
 ! A16   A(1,6,5)              120.0            estimate D2E/DX2                !
 ! A17   A(1,6,10)             120.008          estimate D2E/DX2                !
 ! A18   A(5,6,10)             119.992          estimate D2E/DX2                !
 ! A19   A(3,11,12)            109.4712         estimate D2E/DX2                !
 ! A20   A(3,11,13)            109.4712         estimate D2E/DX2                !
 ! A21   A(3,11,14)            109.4712         estimate D2E/DX2                !
 ! A22   A(12,11,13)           109.4713         estimate D2E/DX2                !
 ! A23   A(12,11,14)           109.4712         estimate D2E/DX2                !
 ! A24   A(13,11,14)           109.4712         estimate D2E/DX2                !
 ! A25   A(11,14,15)           109.4712         estimate D2E/DX2                !
 ! A26   A(11,14,16)           109.4712         estimate D2E/DX2                !
 ! A27   A(11,14,17)           109.4712         estimate D2E/DX2                !
 ! A28   A(15,14,16)           109.4712         estimate D2E/DX2                !
 ! A29   A(15,14,17)           109.4713         estimate D2E/DX2                !
 ! A30   A(16,14,17)           109.4712         estimate D2E/DX2                !
 ! A31   A(14,17,18)           119.9972         estimate D2E/DX2                !
 ! A32   A(14,17,19)           120.0043         estimate D2E/DX2                !
 ! A33   A(18,17,19)           119.9985         estimate D2E/DX2                !
 ! A34   A(17,18,20)           120.0086         estimate D2E/DX2                !
 ! A35   A(17,18,21)           119.9808         estimate D2E/DX2                !
 ! A36   A(20,18,21)           120.0106         estimate D2E/DX2                !
 ! A37   A(17,19,22)           120.0            estimate D2E/DX2                !
 ! A38   A(17,19,28)           120.008          estimate D2E/DX2                !
 ! A39   A(22,19,28)           119.992          estimate D2E/DX2                !
 ! A40   A(18,20,23)           119.9942         estimate D2E/DX2                !
 ! A41   A(18,20,24)           120.0128         estimate D2E/DX2                !
 ! A42   A(23,20,24)           119.993          estimate D2E/DX2                !
 ! A43   A(19,22,23)           120.0047         estimate D2E/DX2                !
 ! A44   A(19,22,25)           119.984          estimate D2E/DX2                !
 ! A45   A(23,22,25)           120.0113         estimate D2E/DX2                !
 ! A46   A(20,23,22)           119.994          estimate D2E/DX2                !
 ! A47   A(20,23,26)           119.9811         estimate D2E/DX2                !
 ! A48   A(22,23,26)           120.0249         estimate D2E/DX2                !
 ! A49   A(4,27,29)            109.4712         estimate D2E/DX2                !
 ! A50   A(4,27,32)            109.4712         estimate D2E/DX2                !
 ! A51   A(29,27,32)           109.4713         estimate D2E/DX2                !
 ! A52   A(19,28,40)           109.4712         estimate D2E/DX2                !
 ! A53   A(19,28,47)           109.4712         estimate D2E/DX2                !
 ! A54   A(40,28,47)           109.4713         estimate D2E/DX2                !
 ! A55   A(27,29,30)           109.4712         estimate D2E/DX2                !
 ! A56   A(27,29,31)           109.4712         estimate D2E/DX2                !
 ! A57   A(27,29,36)           109.4712         estimate D2E/DX2                !
 ! A58   A(30,29,31)           109.4713         estimate D2E/DX2                !
 ! A59   A(30,29,36)           109.4712         estimate D2E/DX2                !
 ! A60   A(31,29,36)           109.4712         estimate D2E/DX2                !
 ! A61   A(27,32,33)           109.4712         estimate D2E/DX2                !
 ! A62   A(27,32,34)           109.4712         estimate D2E/DX2                !
 ! A63   A(27,32,35)           109.4712         estimate D2E/DX2                !
 ! A64   A(33,32,34)           109.4713         estimate D2E/DX2                !
 ! A65   A(33,32,35)           109.4712         estimate D2E/DX2                !
 ! A66   A(34,32,35)           109.4712         estimate D2E/DX2                !
 ! A67   A(29,36,37)           109.4712         estimate D2E/DX2                !
 ! A68   A(29,36,38)           109.4712         estimate D2E/DX2                !
 ! A69   A(29,36,39)           109.4712         estimate D2E/DX2                !
 ! A70   A(37,36,38)           109.4713         estimate D2E/DX2                !
 ! A71   A(37,36,39)           109.4712         estimate D2E/DX2                !
 ! A72   A(38,36,39)           109.4712         estimate D2E/DX2                !
 ! A73   A(28,40,41)           109.4712         estimate D2E/DX2                !
 ! A74   A(28,40,42)           109.4712         estimate D2E/DX2                !
 ! A75   A(28,40,43)           109.4712         estimate D2E/DX2                !
 ! A76   A(41,40,42)           109.4712         estimate D2E/DX2                !
 ! A77   A(41,40,43)           109.4713         estimate D2E/DX2                !
 ! A78   A(42,40,43)           109.4712         estimate D2E/DX2                !
 ! A79   A(40,43,44)           109.4712         estimate D2E/DX2                !
 ! A80   A(40,43,45)           109.4712         estimate D2E/DX2                !
 ! A81   A(40,43,46)           109.4712         estimate D2E/DX2                !
 ! A82   A(44,43,45)           109.4713         estimate D2E/DX2                !
 ! A83   A(44,43,46)           109.4712         estimate D2E/DX2                !
 ! A84   A(45,43,46)           109.4712         estimate D2E/DX2                !
 ! A85   A(28,47,48)           109.4712         estimate D2E/DX2                !
 ! A86   A(28,47,49)           109.4712         estimate D2E/DX2                !
 ! A87   A(28,47,50)           109.4712         estimate D2E/DX2                !
 ! A88   A(48,47,49)           109.4713         estimate D2E/DX2                !
 ! A89   A(48,47,50)           109.4712         estimate D2E/DX2                !
 ! A90   A(49,47,50)           109.4712         estimate D2E/DX2                !
 ! D1    D(6,1,2,3)              0.0323         estimate D2E/DX2                !
 ! D2    D(6,1,2,8)            179.9532         estimate D2E/DX2                !
 ! D3    D(7,1,2,3)           -179.9729         estimate D2E/DX2                !
 ! D4    D(7,1,2,8)             -0.052          estimate D2E/DX2                !
 ! D5    D(2,1,6,5)              0.0149         estimate D2E/DX2                !
 ! D6    D(2,1,6,10)           179.9892         estimate D2E/DX2                !
 ! D7    D(7,1,6,5)           -179.9798         estimate D2E/DX2                !
 ! D8    D(7,1,6,10)            -0.0056         estimate D2E/DX2                !
 ! D9    D(1,2,3,4)             -0.0568         estimate D2E/DX2                !
 ! D10   D(1,2,3,11)           179.9619         estimate D2E/DX2                !
 ! D11   D(8,2,3,4)           -179.9777         estimate D2E/DX2                !
 ! D12   D(8,2,3,11)             0.041          estimate D2E/DX2                !
 ! D13   D(2,3,4,5)              0.0341         estimate D2E/DX2                !
 ! D14   D(2,3,4,27)          -179.9964         estimate D2E/DX2                !
 ! D15   D(11,3,4,5)          -179.9846         estimate D2E/DX2                !
 ! D16   D(11,3,4,27)           -0.0151         estimate D2E/DX2                !
 ! D17   D(2,3,11,12)           90.7227         estimate D2E/DX2                !
 ! D18   D(2,3,11,13)         -149.2773         estimate D2E/DX2                !
 ! D19   D(2,3,11,14)          -29.2773         estimate D2E/DX2                !
 ! D20   D(4,3,11,12)          -89.2586         estimate D2E/DX2                !
 ! D21   D(4,3,11,13)           30.7414         estimate D2E/DX2                !
 ! D22   D(4,3,11,14)          150.7414         estimate D2E/DX2                !
 ! D23   D(3,4,5,6)              0.0131         estimate D2E/DX2                !
 ! D24   D(3,4,5,9)           -179.9995         estimate D2E/DX2                !
 ! D25   D(27,4,5,6)          -179.9563         estimate D2E/DX2                !
 ! D26   D(27,4,5,9)             0.0311         estimate D2E/DX2                !
 ! D27   D(3,4,27,29)          137.1425         estimate D2E/DX2                !
 ! D28   D(3,4,27,32)         -102.8574         estimate D2E/DX2                !
 ! D29   D(5,4,27,29)          -42.888          estimate D2E/DX2                !
 ! D30   D(5,4,27,32)           77.112          estimate D2E/DX2                !
 ! D31   D(4,5,6,1)             -0.0376         estimate D2E/DX2                !
 ! D32   D(4,5,6,10)           179.9881         estimate D2E/DX2                !
 ! D33   D(9,5,6,1)            179.975          estimate D2E/DX2                !
 ! D34   D(9,5,6,10)             0.0007         estimate D2E/DX2                !
 ! D35   D(3,11,14,15)        -167.7506         estimate D2E/DX2                !
 ! D36   D(3,11,14,16)         -47.7506         estimate D2E/DX2                !
 ! D37   D(3,11,14,17)          72.2493         estimate D2E/DX2                !
 ! D38   D(12,11,14,15)         72.2494         estimate D2E/DX2                !
 ! D39   D(12,11,14,16)       -167.7506         estimate D2E/DX2                !
 ! D40   D(12,11,14,17)        -47.7506         estimate D2E/DX2                !
 ! D41   D(13,11,14,15)        -47.7507         estimate D2E/DX2                !
 ! D42   D(13,11,14,16)         72.2493         estimate D2E/DX2                !
 ! D43   D(13,11,14,17)       -167.7507         estimate D2E/DX2                !
 ! D44   D(11,14,17,18)       -136.2272         estimate D2E/DX2                !
 ! D45   D(11,14,17,19)         43.7675         estimate D2E/DX2                !
 ! D46   D(15,14,17,18)        103.7728         estimate D2E/DX2                !
 ! D47   D(15,14,17,19)        -76.2324         estimate D2E/DX2                !
 ! D48   D(16,14,17,18)        -16.2272         estimate D2E/DX2                !
 ! D49   D(16,14,17,19)        163.7675         estimate D2E/DX2                !
 ! D50   D(14,17,18,20)       -179.9729         estimate D2E/DX2                !
 ! D51   D(14,17,18,21)         -0.052          estimate D2E/DX2                !
 ! D52   D(19,17,18,20)          0.0323         estimate D2E/DX2                !
 ! D53   D(19,17,18,21)        179.9532         estimate D2E/DX2                !
 ! D54   D(14,17,19,22)       -179.9798         estimate D2E/DX2                !
 ! D55   D(14,17,19,28)         -0.0056         estimate D2E/DX2                !
 ! D56   D(18,17,19,22)          0.0149         estimate D2E/DX2                !
 ! D57   D(18,17,19,28)        179.9892         estimate D2E/DX2                !
 ! D58   D(17,18,20,23)         -0.0568         estimate D2E/DX2                !
 ! D59   D(17,18,20,24)        179.9619         estimate D2E/DX2                !
 ! D60   D(21,18,20,23)       -179.9777         estimate D2E/DX2                !
 ! D61   D(21,18,20,24)          0.041          estimate D2E/DX2                !
 ! D62   D(17,19,22,23)         -0.0376         estimate D2E/DX2                !
 ! D63   D(17,19,22,25)        179.975          estimate D2E/DX2                !
 ! D64   D(28,19,22,23)        179.9881         estimate D2E/DX2                !
 ! D65   D(28,19,22,25)          0.0007         estimate D2E/DX2                !
 ! D66   D(17,19,28,40)       -151.7688         estimate D2E/DX2                !
 ! D67   D(17,19,28,47)         88.2311         estimate D2E/DX2                !
 ! D68   D(22,19,28,40)         28.2054         estimate D2E/DX2                !
 ! D69   D(22,19,28,47)        -91.7946         estimate D2E/DX2                !
 ! D70   D(18,20,23,22)          0.0341         estimate D2E/DX2                !
 ! D71   D(18,20,23,26)       -179.9964         estimate D2E/DX2                !
 ! D72   D(24,20,23,22)       -179.9846         estimate D2E/DX2                !
 ! D73   D(24,20,23,26)         -0.0151         estimate D2E/DX2                !
 ! D74   D(19,22,23,20)          0.0131         estimate D2E/DX2                !
 ! D75   D(19,22,23,26)       -179.9563         estimate D2E/DX2                !
 ! D76   D(25,22,23,20)       -179.9995         estimate D2E/DX2                !
 ! D77   D(25,22,23,26)          0.031          estimate D2E/DX2                !
 ! D78   D(4,27,29,30)          78.1037         estimate D2E/DX2                !
 ! D79   D(4,27,29,31)        -161.8963         estimate D2E/DX2                !
 ! D80   D(4,27,29,36)         -41.8963         estimate D2E/DX2                !
 ! D81   D(32,27,29,30)        -41.8963         estimate D2E/DX2                !
 ! D82   D(32,27,29,31)         78.1037         estimate D2E/DX2                !
 ! D83   D(32,27,29,36)       -161.8963         estimate D2E/DX2                !
 ! D84   D(4,27,32,33)         163.4078         estimate D2E/DX2                !
 ! D85   D(4,27,32,34)         -76.5922         estimate D2E/DX2                !
 ! D86   D(4,27,32,35)          43.4078         estimate D2E/DX2                !
 ! D87   D(29,27,32,33)        -76.5923         estimate D2E/DX2                !
 ! D88   D(29,27,32,34)         43.4078         estimate D2E/DX2                !
 ! D89   D(29,27,32,35)        163.4078         estimate D2E/DX2                !
 ! D90   D(19,28,40,41)        -75.4127         estimate D2E/DX2                !
 ! D91   D(19,28,40,42)         44.5873         estimate D2E/DX2                !
 ! D92   D(19,28,40,43)        164.5873         estimate D2E/DX2                !
 ! D93   D(47,28,40,41)         44.5873         estimate D2E/DX2                !
 ! D94   D(47,28,40,42)        164.5873         estimate D2E/DX2                !
 ! D95   D(47,28,40,43)        -75.4127         estimate D2E/DX2                !
 ! D96   D(19,28,47,48)         87.5189         estimate D2E/DX2                !
 ! D97   D(19,28,47,49)       -152.4811         estimate D2E/DX2                !
 ! D98   D(19,28,47,50)        -32.4811         estimate D2E/DX2                !
 ! D99   D(40,28,47,48)        -32.4811         estimate D2E/DX2                !
 ! D100  D(40,28,47,49)         87.5189         estimate D2E/DX2                !
 ! D101  D(40,28,47,50)       -152.4811         estimate D2E/DX2                !
 ! D102  D(27,29,36,37)        -33.4505         estimate D2E/DX2                !
 ! D103  D(27,29,36,38)         86.5495         estimate D2E/DX2                !
 ! D104  D(27,29,36,39)       -153.4505         estimate D2E/DX2                !
 ! D105  D(30,29,36,37)       -153.4505         estimate D2E/DX2                !
 ! D106  D(30,29,36,38)        -33.4505         estimate D2E/DX2                !
 ! D107  D(30,29,36,39)         86.5495         estimate D2E/DX2                !
 ! D108  D(31,29,36,37)         86.5495         estimate D2E/DX2                !
 ! D109  D(31,29,36,38)       -153.4505         estimate D2E/DX2                !
 ! D110  D(31,29,36,39)        -33.4505         estimate D2E/DX2                !
 ! D111  D(28,40,43,44)        125.1647         estimate D2E/DX2                !
 ! D112  D(28,40,43,45)       -114.8353         estimate D2E/DX2                !
 ! D113  D(28,40,43,46)          5.1647         estimate D2E/DX2                !
 ! D114  D(41,40,43,44)          5.1647         estimate D2E/DX2                !
 ! D115  D(41,40,43,45)        125.1647         estimate D2E/DX2                !
 ! D116  D(41,40,43,46)       -114.8353         estimate D2E/DX2                !
 ! D117  D(42,40,43,44)       -114.8353         estimate D2E/DX2                !
 ! D118  D(42,40,43,45)          5.1647         estimate D2E/DX2                !
 ! D119  D(42,40,43,46)        125.1647         estimate D2E/DX2                !
 --------------------------------------------------------------------------------
 Trust Radius=3.00D-01 FncErr=1.00D-07 GrdErr=1.00D-06 EigMax=2.50D+02 EigMin=1.00D-04
 Number of steps in this run=    270 maximum allowed number of steps=    300.
 GradGradGradGradGradGradGradGradGradGradGradGradGradGradGradGradGradGrad

                          Input orientation:                          
 ---------------------------------------------------------------------
 Center     Atomic      Atomic             Coordinates (Angstroms)
 Number     Number       Type             X           Y           Z
 ---------------------------------------------------------------------
      1          6           0       -2.720588    1.558824    0.000000
      2          6           0       -1.325428    1.558824    0.000000
      3          6           0       -0.627890    2.766575    0.000000
      4          6           0       -1.325544    3.975084   -0.001199
      5          6           0       -2.720369    3.975006   -0.001678
      6          6           0       -3.417970    2.766800   -0.000682
      7          1           0       -3.270347    0.606507    0.000450
      8          1           0       -0.775920    0.606311    0.001315
      9          1           0       -3.270491    4.927287   -0.002631
     10          1           0       -4.517574    2.766983   -0.000862
     11          6           0        0.912110    2.766687    0.000888
     12          1           0        1.269356    2.779101   -1.007636
     13          1           0        1.268416    3.634104    0.516187
     14          6           0        1.425126    1.500499    0.711651
     15          1           0        2.473355    1.598633    0.902661
     16          1           0        0.904002    1.375428    1.637765
     17          6           0        1.179503    0.273083   -0.185410
     18          6           0        0.674971   -0.904649    0.366736
     19          6           0        1.461309    0.338789   -1.549894
     20          6           0        0.452963   -2.016591   -0.445372
     21          1           0        0.453627   -0.956375    1.442642
     22          6           0        1.238361   -0.773088   -2.362564
     23          6           0        0.734399   -1.950723   -1.810535
     24          1           0        0.055878   -2.945127   -0.010123
     25          1           0        1.460258   -0.720858   -3.438440
     26          1           0        0.559217   -2.827559   -2.450666
     27          7           0       -0.590063    5.247863   -0.001278
     28          7           0        1.992687    1.579668   -2.131922
     29          6           0       -1.223792    6.179934   -0.944957
     30          1           0       -2.101538    6.598039   -0.498135
     31          1           0       -0.537759    6.964911   -1.185934
     32          6           0       -0.613019    5.827138    1.349578
     33          1           0        0.142926    6.580376    1.427545
     34          1           0       -1.572192    6.264005    1.534064
     35          1           0       -0.426502    5.058683    2.070402
     36          6           0       -1.611776    5.424851   -2.229838
     37          1           0       -0.894063    4.654746   -2.421477
     38          1           0       -2.580490    4.987184   -2.107606
     39          1           0       -1.630348    6.107987   -3.053172
     40          6           0        1.588737    1.671576   -3.542340
     41          1           0        2.181674    1.000199   -4.127643
     42          1           0        0.555698    1.408738   -3.635334
     43          6           0        1.798968    3.112431   -4.043678
     44          1           0        2.417708    3.099651   -4.916545
     45          1           0        0.851771    3.548130   -4.284269
     46          1           0        2.273494    3.690625   -3.278553
     47          6           0        3.459911    1.574107   -2.041804
     48          1           0        3.868291    1.087453   -2.902788
     49          1           0        3.818369    2.581319   -1.997835
     50          1           0        3.761054    1.049503   -1.159192
 ---------------------------------------------------------------------
                    Distance matrix (angstroms):
                    1          2          3          4          5
     1  C    0.000000
     2  C    1.395160   0.000000
     3  C    2.416205   1.394712   0.000000
     4  C    2.790065   2.416260   1.395427   0.000000
     5  C    2.416183   2.789946   2.416356   1.394825   0.000000
     6  C    1.394829   2.416183   2.790080   2.416236   1.395138
     7  H    1.099610   2.165553   3.412986   3.889675   3.413102
     8  H    2.165414   1.099655   2.165330   3.413316   3.889601
     9  H    3.413055   3.889707   3.413506   2.165528   1.099761
    10  H    2.165365   3.413128   3.889684   3.412999   2.165471
    11  C    3.828241   2.542737   1.540000   2.543093   3.828178
    12  H    4.292326   3.039295   2.148263   3.029323   4.284863
    13  H    4.526079   3.361735   2.148263   2.666943   4.036682
    14  C    4.206755   2.841724   2.514810   3.768011   4.880281
    15  H    5.271947   3.904758   3.434619   4.571227   5.782711
    16  H    3.981653   2.772412   2.638988   3.796747   4.752015
    17  C    4.110744   2.821734   3.085214   4.473701   5.380241
    18  C    4.211059   3.194494   3.912778   5.286703   5.956097
    19  C    4.623734   3.414171   3.558239   4.836077   5.753736
    20  C    4.801392   4.018037   4.923949   6.265823   6.794566
    21  H    4.299196   3.401834   4.136575   5.437776   6.039770
    22  C    5.166508   4.194346   4.646915   5.890228   6.617380
    23  C    5.247084   4.453969   5.233237   6.529337   7.093775
    24  H    5.290977   4.711017   5.752493   7.056750   7.456263
    25  H    5.873610   4.977938   5.324042   6.451914   7.165202
    26  H    6.000269   5.366376   6.221681   7.471824   7.939024
    27  N    4.260065   3.761619   2.481577   1.470000   2.481606
    28  N    5.173054   3.944035   3.580679   4.613963   5.699867
    29  C    4.948536   4.717832   3.591527   2.400500   2.826876
    30  H    5.101475   5.122907   4.135202   2.780109   2.740388
    31  H    5.949535   5.590406   4.363553   3.311083   3.886616
    32  C    4.947901   4.532924   3.344942   2.400500   3.114035
    33  H    5.954292   5.423093   4.144530   3.314403   4.126632
    34  H    5.080443   4.955097   3.934092   2.767134   2.986023
    35  H    4.668877   4.164571   3.095300   2.504795   3.275622
    36  C    4.598675   4.472174   3.606472   2.674058   2.880230
    37  H    4.334107   3.954031   3.082140   2.550659   3.106907
    38  H    4.026821   4.215547   3.631219   2.652581   2.340727
    39  H    5.586177   5.487233   4.635927   3.735870   3.879352
    40  C    5.579531   4.588381   4.319795   5.132140   6.034109
    41  H    6.432858   5.445113   5.296335   6.178839   7.064211
    42  H    4.896145   4.095952   4.057124   4.830336   5.524655
    43  C    6.260305   5.341056   4.728698   5.181543   6.124231
    44  H    7.276583   6.368488   5.793015   6.240108   7.163938
    45  H    5.922335   5.201201   4.599476   4.823658   5.593120
    46  H    6.343055   5.314671   4.474462   4.875966   5.979753
    47  C    6.509053   5.202756   4.722400   5.729689   6.937024
    48  H    7.215379   5.968508   5.609035   6.613135   7.756600
    49  H    6.913379   5.612084   4.878000   5.691132   6.977256
    50  H    6.604152   5.241702   4.853338   5.981091   7.204669
                    6          7          8          9         10
     6  C    0.000000
     7  H    2.165331   0.000000
     8  H    3.412938   2.494427   0.000000
     9  H    2.165516   4.320781   4.989362   0.000000
    10  H    1.099604   2.494641   4.320704   2.494420   0.000000
    11  C    4.330080   4.707369   2.741654   4.707691   5.429684
    12  H    4.794282   5.132768   3.149945   5.122007   5.873867
    13  H    4.793911   5.480210   3.689436   4.747965   5.873408
    14  C    5.056334   4.832442   2.479668   5.856781   6.117788
    15  H    6.073578   5.898170   3.514956   6.700094   7.145242
    16  H    4.826994   4.549421   2.468127   5.721276   5.832239
    17  C    5.233498   4.466193   1.992382   6.441853   6.221759
    18  C    5.510599   4.240671   2.126410   7.050857   6.370128
    19  C    5.665921   4.986362   2.735509   6.770396   6.636465
    20  C    6.169497   4.576290   2.930750   7.891613   6.912771
    21  H    5.561877   4.288415   2.455849   7.111634   6.376515
    22  C    6.307988   5.274047   3.398234   7.641551   7.158249
    23  C    6.540088   5.084986   3.478834   8.161781   7.287996
    24  H    6.685343   4.866003   3.647565   8.546326   7.317428
    25  H    6.912239   5.997207   4.312051   8.129349   7.727642
    26  H    7.288160   5.697923   4.425636   8.988724   7.941929
    27  N    3.762012   5.359675   4.645273   2.699531   4.645440
    28  N    5.935207   5.761387   3.628128   6.591015   6.952311
    29  C    4.166000   6.012094   5.671093   2.577999   4.836171
    30  H    4.081525   6.124799   6.156908   2.098425   4.556479
    31  H    5.227292   7.021670   6.472873   3.608316   5.904738
    32  C    4.365390   6.011367   5.394571   3.114540   5.141380
    33  H    5.409546   7.026675   6.210304   4.053335   6.188908
    34  H    4.241791   6.102704   5.915478   2.651880   4.822908
    35  H    4.300116   5.673978   4.922076   3.521790   5.126295
    36  C    3.911101   5.562507   5.375410   2.821233   4.525070
    37  H    3.974254   5.282111   4.719503   3.401839   4.748985
    38  H    3.173422   4.910207   5.186142   2.215989   3.622148
    39  H    4.865884   6.502346   6.350463   3.659225   5.367959
    40  C    6.229765   6.107080   4.391342   6.836760   7.143460
    41  H    7.176956   6.849867   5.094193   7.884405   8.064227
    42  H    5.553834   5.338645   3.955037   6.341644   6.386886
    43  C    6.609215   6.952164   5.410421   6.732249   7.507490
    44  H    7.637516   7.921274   6.371919   7.735788   8.507218
    45  H    6.098383   6.633537   5.447009   6.101437   6.912860
    46  H    6.632545   7.141276   5.437780   6.557192   7.597038
    47  C    7.272823   7.099538   4.801379   7.791043   8.320377
    48  H    8.020725   7.721415   5.498546   8.609149   9.031319
    49  H    7.509170   7.625151   5.385606   7.728929   8.573816
    50  H    7.471924   7.140141   4.703970   8.112797   8.533883
                   11         12         13         14         15
    11  C    0.000000
    12  H    1.070000   0.000000
    13  H    1.070000   1.747303   0.000000
    14  C    1.540000   2.148263   2.148263   0.000000
    15  H    2.148263   2.548009   2.396745   1.070000   0.000000
    16  H    2.148263   3.016940   2.548010   1.070000   1.747303
    17  C    2.514809   2.638987   3.434619   1.540000   2.148263
    18  C    3.697132   3.976457   4.579825   2.542919   3.128549
    19  C    2.932786   2.507192   3.894226   2.542728   2.937085
    20  C    4.825941   4.897070   5.789638   3.828019   4.355344
    21  H    4.018712   4.541261   4.753388   2.741238   3.301355
    22  C    4.268765   3.801952   5.264167   3.828169   4.220423
    23  C    5.056361   4.827220   6.073640   4.330065   4.794093
    24  H    5.775644   5.935852   6.710703   4.707376   5.227152
    25  H    4.928733   4.265555   5.885709   4.707326   5.025093
    26  H    6.118025   5.832775   7.145506   5.429745   5.873661
    27  N    2.900476   3.250382   2.515140   4.314161   4.849589
    28  N    2.669371   1.796069   3.428959   2.900742   3.072474
    29  C    4.136056   4.217273   3.850623   5.626564   6.170163
    30  H    4.900036   5.119259   4.601125   6.315524   6.919967
    31  H    4.597364   4.562726   4.153764   6.108481   6.498152
    32  C    3.675779   4.288395   3.007281   4.825018   5.254113
    33  H    4.143817   4.652811   3.282959   5.287882   5.524869
    34  H    4.555615   5.165191   4.002688   5.687818   6.207320
    35  H    3.365712   4.188884   2.705135   4.235021   4.663125
    36  C    4.290917   4.098133   4.363820   5.768506   6.414109
    37  H    3.562987   3.193332   3.787861   5.014419   5.632870
    38  H    4.644847   4.572404   4.850689   6.012498   6.788618
    39  H    5.191884   4.865592   5.221422   6.688704   7.267962
    40  C    3.769821   2.784482   4.519487   4.260572   4.532759
    41  H    4.666587   3.705571   5.416331   4.923558   5.074166
    42  H    3.897841   3.048278   4.763964   4.434028   4.930200
    43  C    4.155066   3.099863   4.620173   5.035001   5.216575
    44  H    5.153527   4.086690   5.578628   5.934568   6.009934
    45  H    4.356244   3.391475   4.819269   5.429617   5.773588
    46  H    3.669027   2.645039   3.925994   4.630130   4.679629
    47  C    3.476511   2.705558   3.948361   3.424513   3.105442
    48  H    4.471037   3.634244   4.993413   4.382218   4.085168
    49  H    3.532081   2.741729   3.732415   3.773208   3.344789
    50  H    3.522924   3.036945   3.962361   3.026552   2.492178
                   16         17         18         19         20
    16  H    0.000000
    17  C    2.148263   0.000000
    18  C    2.620443   1.395160   0.000000
    19  C    3.397997   1.394829   2.416183   0.000000
    20  C    4.006081   2.416205   1.394712   2.790080   0.000000
    21  H    2.382900   2.165414   1.099655   3.412938   2.165330
    22  C    4.553082   2.416183   2.789946   1.395138   2.416356
    23  C    4.794040   2.790065   2.416260   2.416236   1.395427
    24  H    4.701281   3.413229   2.165375   3.889760   1.099680
    25  H    5.520117   3.413055   3.889707   2.165516   3.413506
    26  H    5.873605   3.889745   3.413024   3.413344   2.165678
    27  N    4.462561   5.283342   6.291991   5.541241   7.352375
    28  N    3.929057   2.481399   3.761848   1.470000   4.260080
    29  C    5.855019   6.422120   7.450984   6.457143   8.381176
    30  H    6.393044   7.132187   8.046573   7.278619   8.985550
    31  H    6.426062   6.980731   8.112428   6.930674   9.066275
    32  C    4.711914   6.034638   6.924006   6.544598   8.116789
    33  H    5.264496   6.592273   7.578522   7.039935   8.804078
    34  H    5.480920   6.813191   7.602763   7.336288   8.751440
    35  H    3.940023   5.529006   6.298972   6.240815   7.560561
    36  C    6.138837   6.205774   7.213458   5.981154   7.926066
    37  H    5.519457   5.338411   6.414271   4.993487   7.087044
    38  H    6.262130   6.328912   7.171757   6.185043   7.811384
    39  H    7.129161   7.082756   8.135560   6.715790   8.783483
    40  C    5.233551   3.659540   4.769987   2.400500   4.948108
    41  H    5.917193   4.132099   5.108625   2.757023   5.064443
    42  H    5.284695   3.685216   4.624128   2.512764   4.681804
    43  C    6.008073   4.830307   6.070590   3.745138   6.408307
    44  H    6.944295   5.648564   6.854533   4.457735   7.073015
    45  H    6.308236   5.256803   6.441300   4.260072   6.772171
    46  H    5.604090   4.737503   6.079470   3.857811   6.626731
    47  C    4.484571   3.215451   4.438603   2.400500   4.948076
    48  H    5.430153   3.908570   4.985534   2.860836   5.228618
    49  H    4.813034   3.946701   5.255866   3.284102   5.905665
    50  H    4.011477   2.866267   3.958671   2.438563   4.566612
                   21         22         23         24         25
    21  H    0.000000
    22  C    3.889601   0.000000
    23  C    3.413316   1.394825   0.000000
    24  H    2.494768   3.413209   2.165806   0.000000
    25  H    4.989362   1.099761   2.165528   4.321228   0.000000
    26  H    4.320917   2.165606   1.099680   2.494678   2.495147
    27  N    6.454980   6.720912   7.539711   8.218419   7.186343
    28  N    4.645183   2.481464   3.761680   5.359760   2.698683
    29  C    7.709817   7.511080   8.407813   9.261653   7.812971
    30  H    8.207597   8.304489   9.101992   9.796153   8.654366
    31  H    8.404703   8.025939   9.027571   9.997189   8.254508
    32  C    6.867492   7.795550   8.502763   8.902183   8.372566
    33  H    7.543168   8.344959   9.144105   9.633778   8.872497
    34  H    7.499746   8.520775   9.164522   9.478568   9.094497
    35  H    6.111434   7.512158   8.095748   8.283855   8.204285
    36  C    7.646767   6.823148   7.751093   8.818431   6.976235
    37  H    6.944952   5.831988   6.830618   8.029637   5.956018
    38  H    7.558837   6.915877   7.694887   8.618087   7.119025
    39  H    8.629050   7.487031   8.489934   9.698576   7.505559
    40  C    5.748447   2.736972   4.104886   6.011668   2.398133
    41  H    6.151618   2.673928   4.021384   6.085932   1.989342
    42  H    5.602680   2.616550   3.827245   5.687540   2.322106
    43  C    6.961669   4.270560   5.635225   7.483444   3.895528
    44  H    7.794115   4.786626   6.163368   8.135758   4.206875
    45  H    7.297026   4.745032   6.030797   7.814355   4.394308
    46  H    6.869949   4.672822   6.028987   7.722283   4.488663
    47  C    5.251900   3.247692   4.461651   6.011543   3.349040
    48  H    5.892362   3.266495   4.499423   6.258091   3.058681
    49  H    5.972742   4.247531   5.485012   6.974879   4.305857
    50  H    4.661777   3.336753   4.311177   5.568281   3.690909
                   26         27         28         29         30
    26  H    0.000000
    27  N    8.516618   0.000000
    28  N    4.645436   4.966477   0.000000
    29  C    9.304902   1.470000   5.737340   0.000000
    30  H    9.986685   2.086720   6.679520   1.070000   0.000000
    31  H    9.934554   2.086720   6.024857   1.070000   1.747303
    32  C    9.524693   1.470000   6.078780   2.400500   2.494799
    33  H   10.184452   2.086720   6.410812   2.767135   2.957393
    34  H   10.152710   2.086720   6.934756   2.504795   2.126410
    35  H    9.143550   2.086720   5.967877   3.314403   3.431144
    36  C    8.536055   2.457987   5.271354   1.540000   2.148263
    37  H    7.622188   2.510292   4.227679   2.148263   2.988918
    38  H    8.428858   2.909703   5.703131   2.148263   2.326939
    39  H    9.219609   3.337074   5.872032   2.148263   2.643934
    40  C    4.742771   5.484170   1.470000   5.914559   6.866976
    41  H    4.482895   6.538506   2.086720   6.968238   7.928117
    42  H    4.398825   5.409068   2.086720   5.759256   6.620557
    43  C    6.273607   5.158347   2.457987   5.305537   6.319358
    44  H    6.683290   6.149907   3.200799   6.206624   7.223895
    45  H    6.640564   4.828249   3.131953   4.731317   5.688479
    46  H    6.790498   4.622281   2.418626   4.886035   5.943458
    47  C    5.287330   5.836311   1.470000   6.659864   7.651962
    48  H    5.146038   6.753125   2.086720   7.462960   8.472767
    49  H    6.331120   5.525484   2.086720   6.283468   7.309476
    50  H    5.191461   6.156234   2.086720   7.156529   8.098965
                   31         32         33         34         35
    31  H    0.000000
    32  C    2.780110   0.000000
    33  H    2.727905   1.070000   0.000000
    34  H    2.993277   1.070000   1.747303   0.000000
    35  H    3.774892   1.070000   1.747303   1.747303   0.000000
    36  C    2.148263   3.737856   4.217898   3.856515   4.475603
    37  H    2.643934   3.959084   4.427004   4.323874   4.534177
    38  H    2.988918   4.065536   4.738412   3.988571   4.701120
    39  H    2.326940   4.527477   4.841949   4.590257   5.366684
    40  C    6.172036   6.785816   7.133473   7.540011   6.858320
    41  H    7.185176   7.817263   8.133571   8.593840   7.854275
    42  H    6.169787   6.762952   7.249067   7.404338   6.844140
    43  C    5.335598   6.501887   6.686060   7.239361   6.791362
    44  H    6.131271   7.475882   7.585352   8.218443   7.793893
    45  H    4.817143   6.251378   6.505520   6.863277   6.655644
    46  H    4.796160   5.858007   5.919235   6.676292   6.145965
    47  C    6.765697   6.795478   6.935525   7.752680   6.645052
    48  H    7.543565   7.786487   7.924792   8.722454   7.677795
    49  H    6.233051   6.432552   6.421415   7.422577   6.380190
    50  H    7.312494   6.946384   7.097367   7.930207   6.636221
                   36         37         38         39         40
    36  C    0.000000
    37  H    1.070000   0.000000
    38  H    1.070000   1.747303   0.000000
    39  H    1.070000   1.747303   1.747303   0.000000
    40  C    5.104215   4.039793   5.516717   5.503048   0.000000
    41  H    6.129393   5.072165   6.531064   6.463396   1.070000
    42  H    4.775199   3.756571   4.997490   5.215425   1.070000
    43  C    4.502274   3.501812   5.142249   4.659900   1.540000
    44  H    5.372308   4.428489   6.036134   5.376710   2.148263
    45  H    3.716427   2.782539   4.311514   3.772185   2.148263
    46  H    4.382085   3.420164   5.158812   4.597219   2.148263
    47  C    6.370682   5.347109   6.938290   6.891275   2.400500
    48  H    7.021183   5.969694   7.578060   7.447376   2.438563
    49  H    6.134001   5.165809   6.837078   6.575685   2.860837
    50  H    7.011223   6.021731   7.524626   7.631686   3.284102
                   41         42         43         44         45
    41  H    0.000000
    42  H    1.747303   0.000000
    43  C    2.148263   2.148263   0.000000
    44  H    2.255166   2.822724   1.070000   0.000000
    45  H    2.878389   2.255166   1.070000   1.747303   0.000000
    46  H    2.822724   2.878389   1.070000   1.747303   1.747303
    47  C    2.512764   3.316796   3.022031   3.417251   3.965830
    48  H    2.086278   3.407802   3.111954   3.195050   4.130716
    49  H    3.116856   3.834236   2.923275   3.278626   3.868230
    50  H    3.362822   4.066280   4.052864   4.486132   4.947036
                   46         47         48         49         50
    46  H    0.000000
    47  C    2.723376   0.000000
    48  H    3.075886   1.070000   0.000000
    49  H    2.292910   1.070000   1.747303   0.000000
    50  H    3.698655   1.070000   1.747303   1.747303   0.000000
 Stoichiometry    C20H28N2
 Framework group  C1[X(C20H28N2)]
 Deg. of freedom   144
 Full point group                 C1      NOp   1
 Largest Abelian subgroup         C1      NOp   1
 Largest concise Abelian subgroup C1      NOp   1
                         Standard orientation:                         
 ---------------------------------------------------------------------
 Center     Atomic      Atomic             Coordinates (Angstroms)
 Number     Number       Type             X           Y           Z
 ---------------------------------------------------------------------
      1          6           0       -0.995317   -2.585763   -1.200171
      2          6           0       -0.315080   -1.748295   -0.315640
      3          6           0       -0.996663   -0.720317    0.335458
      4          6           0       -2.358881   -0.528700    0.101232
      5          6           0       -3.038785   -1.365709   -0.783462
      6          6           0       -2.357063   -2.394572   -1.433928
      7          1           0       -0.457860   -3.396455   -1.713066
      8          1           0        0.758325   -1.899770   -0.130980
      9          1           0       -4.112371   -1.214944   -0.968278
     10          1           0       -2.893312   -3.054424   -2.131181
     11          6           0       -0.246093    0.203598    1.312507
     12          1           0        0.135456    1.050235    0.780974
     13          1           0       -0.917467    0.535244    2.076816
     14          6           0        0.921609   -0.568332    1.954532
     15          1           0        1.308416   -0.008158    2.780054
     16          1           0        0.573263   -1.519023    2.300569
     17          6           0        2.033956   -0.778208    0.910389
     18          6           0        2.664971   -2.017871    0.803028
     19          6           0        2.410537    0.270951    0.071938
     20          6           0        3.672795   -2.208045   -0.142142
     21          1           0        2.368383   -2.844581    1.464714
     22          6           0        3.417970    0.080595   -0.874240
     23          6           0        4.049205   -1.158605   -0.981312
     24          1           0        4.170646   -3.184949   -0.226398
     25          1           0        3.714394    0.907872   -1.535466
     26          1           0        4.843824   -1.308804   -1.726508
     27          7           0       -3.076956    0.554907    0.787572
     28          7           0        1.745649    1.577131    0.184715
     29          6           0       -3.970557    1.230384   -0.164326
     30          1           0       -4.848735    0.637106   -0.311721
     31          1           0       -4.248052    2.187740    0.224731
     32          6           0       -3.870000   -0.005044    1.891400
     33          1           0       -4.155458    0.780319    2.559695
     34          1           0       -4.747079   -0.474918    1.497888
     35          1           0       -3.284712   -0.728116    2.420082
     36          6           0       -3.243405    1.414026   -1.509364
     37          1           0       -2.200611    1.575292   -1.331957
     38          1           0       -3.371888    0.535889   -2.107083
     39          1           0       -3.652489    2.258491   -2.023590
     40          6           0        1.775634    2.256379   -1.118597
     41          1           0        2.759115    2.636876   -1.299949
     42          1           0        1.514390    1.561404   -1.889091
     43          6           0        0.767566    3.420587   -1.114024
     44          1           0        1.268618    4.327285   -1.381875
     45          1           0       -0.010858    3.221131   -1.820546
     46          1           0        0.344528    3.522240   -0.136473
     47          6           0        2.446259    2.399120    1.181901
     48          1           0        3.243046    2.933118    0.707689
     49          1           0        1.759496    3.095105    1.616484
     50          1           0        2.846201    1.767457    1.947373
 ---------------------------------------------------------------------
 Rotational constants (GHZ):           0.4198269           0.2125863           0.1767116
 Standard basis: 6-31G(d) (6D, 7F)
 There are   386 symmetry adapted cartesian basis functions of A   symmetry.
 There are   386 symmetry adapted basis functions of A   symmetry.
   386 basis functions,   728 primitive gaussians,   386 cartesian basis functions
    81 alpha electrons       81 beta electrons
       nuclear repulsion energy      1887.5223406817 Hartrees.
 NAtoms=   50 NActive=   50 NUniq=   50 SFac= 1.00D+00 NAtFMM=   60 NAOKFM=F Big=F
 Integral buffers will be    131072 words long.
 Raffenetti 2 integral format.
 Two-electron integral symmetry is turned on.
 ------------------------------------------------------------------------------
 Polarizable Continuum Model (PCM)
 =================================
 Model                : PCM.
 Atomic radii         : SMD-Coulomb.
 Polarization charges : Total charges.
 Charge compensation  : None.
 Solution method      : On-the-fly selection.
 Cavity type          : VdW (van der Waals Surface) (Alpha=1.000).
 Cavity algorithm     : GePol (No added spheres)
                        Default sphere list used, NSphG=   50.
                        Lebedev-Laikov grids with approx.  5.0 points / Ang**2.
                        Smoothing algorithm: York/Karplus (Gamma=1.0000).
                        Polarization charges: spherical gaussians, with
                                              point-specific exponents (IZeta= 3).
                        Self-potential: point-specific (ISelfS= 7).
                        Self-field    : sphere-specific E.n sum rule (ISelfD= 2).
 1st derivatives      : Analytical E(r).r(x)/FMM algorithm (CHGder, D1EAlg=3).
                        Cavity 1st derivative terms included.
 Solvent              : Toluene, Eps=   2.374100 Eps(inf)=   2.238315
 ------------------------------------------------------------------------------
 ------------------------------------------------------------------------------
 Atomic radii for non-electrostatic terms: SMD-CDS.
 ------------------------------------------------------------------------------
 Nuclear repulsion after PCM non-electrostatic terms =     1887.5100636504 Hartrees.
 One-electron integrals computed using PRISM.
 NBasis=   386 RedAO= T EigKep=  3.41D-04  NBF=   386
 NBsUse=   386 1.00D-06 EigRej= -1.00D+00 NBFU=   386
 ExpMin= 1.61D-01 ExpMax= 4.17D+03 ExpMxC= 6.27D+02 IAcc=3 IRadAn=         5 AccDes= 0.00D+00
 Harris functional with IExCor=  402 and IRadAn=       5 diagonalized for initial guess.
 HarFok:  IExCor=  402 AccDes= 0.00D+00 IRadAn=         5 IDoV= 1 UseB2=F ITyADJ=14
 ICtDFT=  3500011 ScaDFX=  1.000000  1.000000  1.000000  1.000000
 FoFCou: FMM=F IPFlag=           0 FMFlag=      100000 FMFlg1=           0
         NFxFlg=           0 DoJE=T BraDBF=F KetDBF=T FulRan=T
         wScrn=  0.000000 ICntrl=       500 IOpCl=  0 I1Cent=   200000004 NGrid=           0
         NMat0=    1 NMatS0=      1 NMatT0=    0 NMatD0=    1 NMtDS0=    0 NMtDT0=    0
 Petite list used in FoFCou.
 Requested convergence on RMS density matrix=1.00D-08 within 128 cycles.
 Requested convergence on MAX density matrix=1.00D-06.
 Requested convergence on             energy=1.00D-06.
 No special actions if energy rises.
 Inv3:  Mode=1 IEnd=    32373675.
 Iteration    1 A*A^-1 deviation from unit magnitude is 5.55D-15 for   3283.
 Iteration    1 A*A^-1 deviation from orthogonality  is 3.11D-15 for   2998    321.
 Iteration    1 A^-1*A deviation from unit magnitude is 5.55D-15 for   3283.
 Iteration    1 A^-1*A deviation from orthogonality  is 1.78D-15 for   3075   1648.
 Error on total polarization charges =  0.03874
 SCF Done:  E(RB3LYP) =  -888.426269085     A.U. after   13 cycles
            NFock= 13  Conv=0.33D-08     -V/T= 2.0087
 SMD-CDS (non-electrostatic) energy       (kcal/mol) =      -7.70
 (included in total energy above)

 **********************************************************************

            Population analysis using the SCF Density.

 **********************************************************************

 Orbital symmetries:
       Occupied  (A) (A) (A) (A) (A) (A) (A) (A) (A) (A) (A) (A)
                 (A) (A) (A) (A) (A) (A) (A) (A) (A) (A) (A) (A)
                 (A) (A) (A) (A) (A) (A) (A) (A) (A) (A) (A) (A)
                 (A) (A) (A) (A) (A) (A) (A) (A) (A) (A) (A) (A)
                 (A) (A) (A) (A) (A) (A) (A) (A) (A) (A) (A) (A)
                 (A) (A) (A) (A) (A) (A) (A) (A) (A) (A) (A) (A)
                 (A) (A) (A) (A) (A) (A) (A) (A) (A)
       Virtual   (A) (A) (A) (A) (A) (A) (A) (A) (A) (A) (A) (A)
                 (A) (A) (A) (A) (A) (A) (A) (A) (A) (A) (A) (A)
                 (A) (A) (A) (A) (A) (A) (A) (A) (A) (A) (A) (A)
                 (A) (A) (A) (A) (A) (A) (A) (A) (A) (A) (A) (A)
                 (A) (A) (A) (A) (A) (A) (A) (A) (A) (A) (A) (A)
                 (A) (A) (A) (A) (A) (A) (A) (A) (A) (A) (A) (A)
                 (A) (A) (A) (A) (A) (A) (A) (A) (A) (A) (A) (A)
                 (A) (A) (A) (A) (A) (A) (A) (A) (A) (A) (A) (A)
                 (A) (A) (A) (A) (A) (A) (A) (A) (A) (A) (A) (A)
                 (A) (A) (A) (A) (A) (A) (A) (A) (A) (A) (A) (A)
                 (A) (A) (A) (A) (A) (A) (A) (A) (A) (A) (A) (A)
                 (A) (A) (A) (A) (A) (A) (A) (A) (A) (A) (A) (A)
                 (A) (A) (A) (A) (A) (A) (A) (A) (A) (A) (A) (A)
                 (A) (A) (A) (A) (A) (A) (A) (A) (A) (A) (A) (A)
                 (A) (A) (A) (A) (A) (A) (A) (A) (A) (A) (A) (A)
                 (A) (A) (A) (A) (A) (A) (A) (A) (A) (A) (A) (A)
                 (A) (A) (A) (A) (A) (A) (A) (A) (A) (A) (A) (A)
                 (A) (A) (A) (A) (A) (A) (A) (A) (A) (A) (A) (A)
                 (A) (A) (A) (A) (A) (A) (A) (A) (A) (A) (A) (A)
                 (A) (A) (A) (A) (A) (A) (A) (A) (A) (A) (A) (A)
                 (A) (A) (A) (A) (A) (A) (A) (A) (A) (A) (A) (A)
                 (A) (A) (A) (A) (A) (A) (A) (A) (A) (A) (A) (A)
                 (A) (A) (A) (A) (A) (A) (A) (A) (A) (A) (A) (A)
                 (A) (A) (A) (A) (A) (A) (A) (A) (A) (A) (A) (A)
                 (A) (A) (A) (A) (A) (A) (A) (A) (A) (A) (A) (A)
                 (A) (A) (A) (A) (A)
 The electronic state is 1-A.
 Alpha  occ. eigenvalues --  -14.32629 -14.31403 -10.20741 -10.19410 -10.19388
 Alpha  occ. eigenvalues --  -10.19154 -10.18860 -10.18520 -10.18340 -10.18247
 Alpha  occ. eigenvalues --  -10.18239 -10.18152 -10.18069 -10.17311 -10.17222
 Alpha  occ. eigenvalues --  -10.17191 -10.17129 -10.16902 -10.16045 -10.15866
 Alpha  occ. eigenvalues --  -10.15235 -10.14235  -0.92891  -0.91500  -0.84536
 Alpha  occ. eigenvalues --   -0.82934  -0.78312  -0.74855  -0.74321  -0.73559
 Alpha  occ. eigenvalues --   -0.72819  -0.72193  -0.69737  -0.66931  -0.65037
 Alpha  occ. eigenvalues --   -0.62572  -0.61479  -0.61098  -0.57569  -0.56638
 Alpha  occ. eigenvalues --   -0.56404  -0.54860  -0.50743  -0.49392  -0.47408
 Alpha  occ. eigenvalues --   -0.46995  -0.46483  -0.46017  -0.45335  -0.44373
 Alpha  occ. eigenvalues --   -0.44016  -0.43254  -0.42368  -0.41899  -0.41369
 Alpha  occ. eigenvalues --   -0.41360  -0.40846  -0.40674  -0.39276  -0.37938
 Alpha  occ. eigenvalues --   -0.37416  -0.37052  -0.36266  -0.36084  -0.35452
 Alpha  occ. eigenvalues --   -0.35222  -0.34853  -0.34748  -0.33783  -0.33321
 Alpha  occ. eigenvalues --   -0.33108  -0.32643  -0.32365  -0.31207  -0.30904
 Alpha  occ. eigenvalues --   -0.24880  -0.23430  -0.23226  -0.22772  -0.20638
 Alpha  occ. eigenvalues --   -0.19427
 Alpha virt. eigenvalues --   -0.00054   0.00816   0.01714   0.02193   0.08843
 Alpha virt. eigenvalues --    0.09885   0.09969   0.11346   0.12249   0.12453
 Alpha virt. eigenvalues --    0.12877   0.14250   0.14714   0.15330   0.15558
 Alpha virt. eigenvalues --    0.16306   0.16596   0.16862   0.17177   0.17724
 Alpha virt. eigenvalues --    0.18030   0.18187   0.18695   0.19379   0.19563
 Alpha virt. eigenvalues --    0.20332   0.20653   0.21170   0.21615   0.22574
 Alpha virt. eigenvalues --    0.22825   0.23129   0.23820   0.24153   0.24451
 Alpha virt. eigenvalues --    0.24801   0.25477   0.25869   0.26376   0.26711
 Alpha virt. eigenvalues --    0.28481   0.28922   0.29859   0.30606   0.32244
 Alpha virt. eigenvalues --    0.33598   0.34253   0.34944   0.35863   0.36918
 Alpha virt. eigenvalues --    0.37458   0.38349   0.39546   0.47952   0.48921
 Alpha virt. eigenvalues --    0.49244   0.50784   0.51505   0.52461   0.52595
 Alpha virt. eigenvalues --    0.53047   0.53367   0.54517   0.54857   0.55838
 Alpha virt. eigenvalues --    0.56442   0.56585   0.57411   0.58118   0.58419
 Alpha virt. eigenvalues --    0.59121   0.59578   0.60613   0.60708   0.61173
 Alpha virt. eigenvalues --    0.61783   0.61924   0.62278   0.62383   0.63530
 Alpha virt. eigenvalues --    0.63967   0.64684   0.65501   0.65830   0.66576
 Alpha virt. eigenvalues --    0.66985   0.67404   0.68936   0.69834   0.70762
 Alpha virt. eigenvalues --    0.71573   0.73207   0.74911   0.75431   0.76017
 Alpha virt. eigenvalues --    0.77129   0.77463   0.79739   0.79935   0.81261
 Alpha virt. eigenvalues --    0.81982   0.82519   0.83204   0.83417   0.84221
 Alpha virt. eigenvalues --    0.84567   0.85394   0.85574   0.86330   0.86917
 Alpha virt. eigenvalues --    0.87708   0.88034   0.89026   0.89379   0.89943
 Alpha virt. eigenvalues --    0.90589   0.91257   0.91923   0.92629   0.93060
 Alpha virt. eigenvalues --    0.93438   0.94035   0.95195   0.95753   0.96364
 Alpha virt. eigenvalues --    0.96844   0.97134   0.98669   0.98964   0.99811
 Alpha virt. eigenvalues --    1.00035   1.00968   1.01686   1.03208   1.03310
 Alpha virt. eigenvalues --    1.04049   1.05242   1.05499   1.06396   1.07456
 Alpha virt. eigenvalues --    1.08031   1.09275   1.10423   1.13183   1.14437
 Alpha virt. eigenvalues --    1.15655   1.16190   1.16530   1.18104   1.18962
 Alpha virt. eigenvalues --    1.20454   1.21522   1.22413   1.23265   1.25360
 Alpha virt. eigenvalues --    1.26807   1.28104   1.29881   1.31904   1.36135
 Alpha virt. eigenvalues --    1.37316   1.39401   1.39947   1.40696   1.42596
 Alpha virt. eigenvalues --    1.43816   1.45343   1.46103   1.47508   1.47898
 Alpha virt. eigenvalues --    1.48485   1.49003   1.50456   1.51600   1.52722
 Alpha virt. eigenvalues --    1.53550   1.53840   1.56041   1.57403   1.62358
 Alpha virt. eigenvalues --    1.64926   1.66328   1.69976   1.71669   1.74493
 Alpha virt. eigenvalues --    1.77238   1.78557   1.79880   1.80187   1.83157
 Alpha virt. eigenvalues --    1.83191   1.83762   1.84771   1.85366   1.87498
 Alpha virt. eigenvalues --    1.88059   1.88899   1.90592   1.91802   1.92233
 Alpha virt. eigenvalues --    1.93044   1.93933   1.95064   1.95607   1.96011
 Alpha virt. eigenvalues --    1.97844   1.99516   1.99951   2.01749   2.02431
 Alpha virt. eigenvalues --    2.03866   2.04103   2.04687   2.05735   2.06289
 Alpha virt. eigenvalues --    2.08622   2.10719   2.11168   2.11329   2.12705
 Alpha virt. eigenvalues --    2.14803   2.15371   2.16227   2.18336   2.19130
 Alpha virt. eigenvalues --    2.20583   2.21090   2.23417   2.23887   2.24158
 Alpha virt. eigenvalues --    2.25689   2.26885   2.27346   2.28233   2.30217
 Alpha virt. eigenvalues --    2.30856   2.31628   2.32208   2.33389   2.34403
 Alpha virt. eigenvalues --    2.35369   2.36091   2.36533   2.38810   2.39406
 Alpha virt. eigenvalues --    2.40847   2.41738   2.43620   2.43982   2.47133
 Alpha virt. eigenvalues --    2.47947   2.51738   2.54051   2.55394   2.56563
 Alpha virt. eigenvalues --    2.58880   2.61035   2.62978   2.64031   2.65144
 Alpha virt. eigenvalues --    2.66595   2.67487   2.68316   2.69354   2.70893
 Alpha virt. eigenvalues --    2.73342   2.74410   2.75740   2.78891   2.80474
 Alpha virt. eigenvalues --    2.82128   2.83877   2.85300   2.86110   2.86927
 Alpha virt. eigenvalues --    2.87512   2.89581   3.03352   3.04887   3.14866
 Alpha virt. eigenvalues --    3.17508   3.43336   3.44439   4.10546   4.12321
 Alpha virt. eigenvalues --    4.14155   4.18412   4.19980   4.20616   4.23024
 Alpha virt. eigenvalues --    4.25089   4.27884   4.30333   4.32431   4.34106
 Alpha virt. eigenvalues --    4.38973   4.40718   4.44662   4.45572   4.49163
 Alpha virt. eigenvalues --    4.53508   4.57177   4.59936   4.76918   4.78748
          Condensed to atoms (all electrons):
               1          2          3          4          5          6
     1  C    4.935220   0.508784  -0.018518  -0.049865  -0.027488   0.533441
     2  C    0.508784   5.061037   0.524142  -0.015840  -0.060376  -0.025266
     3  C   -0.018518   0.524142   4.758415   0.554627  -0.053268  -0.040262
     4  C   -0.049865  -0.015840   0.554627   4.808167   0.458108  -0.008932
     5  C   -0.027488  -0.060376  -0.053268   0.458108   5.131035   0.495465
     6  C    0.533441  -0.025266  -0.040262  -0.008932   0.495465   4.932941
     7  H    0.355259  -0.037184   0.003379   0.001065   0.004346  -0.044050
     8  H   -0.045346   0.342848  -0.045908   0.005801   0.000250   0.005511
     9  H    0.004261   0.000635   0.003591  -0.042391   0.355302  -0.041511
    10  H   -0.039127   0.003901   0.001254   0.002457  -0.037136   0.351033
    11  C    0.008830  -0.086775   0.359726  -0.055572   0.011107  -0.000502
    12  H   -0.000149  -0.001868  -0.018976  -0.002302  -0.000098   0.000027
    13  H   -0.000146   0.005159  -0.024792  -0.013014   0.000311  -0.000002
    14  C    0.000161  -0.002885  -0.038742   0.004166  -0.000111  -0.000017
    15  H    0.000000   0.000315   0.004291  -0.000101   0.000003  -0.000000
    16  H   -0.000248   0.003031  -0.003092   0.000350  -0.000021  -0.000027
    17  C    0.000584  -0.017629  -0.011194  -0.000348  -0.000027  -0.000015
    18  C    0.000746  -0.021819   0.001100  -0.000038  -0.000004  -0.000012
    19  C    0.000169  -0.001318  -0.001969  -0.000102   0.000005  -0.000009
    20  C   -0.000031  -0.000827   0.000096   0.000000   0.000000   0.000000
    21  H   -0.000026   0.000513   0.000016  -0.000002  -0.000000  -0.000001
    22  C   -0.000022   0.000794  -0.000065   0.000004   0.000000   0.000000
    23  C   -0.000039   0.000278   0.000034   0.000000  -0.000000   0.000000
    24  H    0.000001  -0.000051   0.000000   0.000000  -0.000000   0.000000
    25  H   -0.000000   0.000004  -0.000001  -0.000000   0.000000  -0.000000
    26  H   -0.000000  -0.000002   0.000000   0.000000  -0.000000   0.000000
    27  N   -0.000061   0.005912  -0.073896   0.298313  -0.096694   0.006460
    28  N    0.000001   0.000656   0.001951  -0.000029   0.000001  -0.000000
    29  C    0.000020  -0.000161   0.004442  -0.056873  -0.004654   0.000360
    30  H    0.000005  -0.000002  -0.000884  -0.009138   0.003523  -0.000244
    31  H   -0.000000   0.000005   0.000144   0.005149   0.000064   0.000001
    32  C    0.000026  -0.000247  -0.005014  -0.056300  -0.000544   0.000121
    33  H   -0.000001   0.000008   0.000419   0.005190  -0.000194   0.000010
    34  H    0.000002  -0.000005  -0.000734  -0.003778   0.005696  -0.000406
    35  H   -0.000009  -0.000183   0.002065   0.001259  -0.000193  -0.000077
    36  C   -0.000010  -0.000061  -0.000855  -0.007187  -0.012132  -0.001454
    37  H    0.000034   0.000109  -0.001099   0.002175  -0.000670  -0.000279
    38  H    0.000171  -0.000077  -0.000383  -0.002727   0.006058   0.000985
    39  H   -0.000005  -0.000002   0.000082   0.001426   0.000807   0.000022
    40  C   -0.000002  -0.000112   0.000008   0.000007   0.000000  -0.000000
    41  H    0.000000   0.000009   0.000009   0.000000   0.000000  -0.000000
    42  H    0.000006   0.000270   0.000158   0.000006  -0.000002  -0.000001
    43  C   -0.000000  -0.000009  -0.000013  -0.000003   0.000000   0.000000
    44  H   -0.000000   0.000000   0.000000   0.000000   0.000000  -0.000000
    45  H    0.000000  -0.000000   0.000001  -0.000006   0.000000   0.000000
    46  H   -0.000000   0.000000  -0.000009  -0.000001   0.000000  -0.000000
    47  C    0.000000  -0.000002   0.000070   0.000001  -0.000000   0.000000
    48  H    0.000000   0.000001  -0.000001  -0.000000   0.000000  -0.000000
    49  H   -0.000000  -0.000003   0.000003   0.000000  -0.000000   0.000000
    50  H    0.000000   0.000003   0.000003   0.000000   0.000000   0.000000
               7          8          9         10         11         12
     1  C    0.355259  -0.045346   0.004261  -0.039127   0.008830  -0.000149
     2  C   -0.037184   0.342848   0.000635   0.003901  -0.086775  -0.001868
     3  C    0.003379  -0.045908   0.003591   0.001254   0.359726  -0.018976
     4  C    0.001065   0.005801  -0.042391   0.002457  -0.055572  -0.002302
     5  C    0.004346   0.000250   0.355302  -0.037136   0.011107  -0.000098
     6  C   -0.044050   0.005511  -0.041511   0.351033  -0.000502   0.000027
     7  H    0.599966  -0.005410  -0.000177  -0.004715  -0.000189   0.000001
     8  H   -0.005410   0.615466   0.000015  -0.000209  -0.014080   0.000400
     9  H   -0.000177   0.000015   0.592057  -0.004545  -0.000135   0.000001
    10  H   -0.004715  -0.000209  -0.004545   0.599465   0.000012   0.000000
    11  C   -0.000189  -0.014080  -0.000135   0.000012   5.300466   0.351714
    12  H    0.000001   0.000400   0.000001   0.000000   0.351714   0.475180
    13  H    0.000003   0.000002  -0.000006   0.000000   0.344239  -0.023224
    14  C    0.000017  -0.008126   0.000002   0.000000   0.324102  -0.036254
    15  H   -0.000000   0.000400  -0.000000  -0.000000  -0.030715  -0.000957
    16  H    0.000005  -0.000959   0.000000  -0.000000  -0.039601   0.004874
    17  C    0.000061   0.004317   0.000000   0.000000  -0.014345  -0.011890
    18  C    0.000143  -0.000553  -0.000000   0.000000   0.002328   0.000312
    19  C   -0.000001  -0.008305  -0.000000   0.000000  -0.010036  -0.006222
    20  C    0.000052   0.000927  -0.000000   0.000000  -0.000219   0.000017
    21  H    0.000010  -0.001486   0.000000   0.000000   0.000207  -0.000001
    22  C   -0.000005  -0.000565   0.000000  -0.000000  -0.000958   0.000759
    23  C   -0.000002   0.000103   0.000000  -0.000000   0.000035  -0.000023
    24  H   -0.000001   0.000176   0.000000   0.000000   0.000002   0.000000
    25  H   -0.000000   0.000001  -0.000000  -0.000000  -0.000010   0.000013
    26  H   -0.000000   0.000007  -0.000000   0.000000  -0.000000   0.000000
    27  N    0.000005  -0.000099  -0.011373  -0.000133  -0.009549   0.001424
    28  N   -0.000000   0.000149  -0.000000  -0.000000  -0.088585   0.031474
    29  C   -0.000000   0.000004   0.004797  -0.000001   0.000302   0.000049
    30  H    0.000000  -0.000000   0.004524   0.000020   0.000043   0.000003
    31  H   -0.000000  -0.000000  -0.000170  -0.000000  -0.000063  -0.000005
    32  C   -0.000000   0.000002   0.000062  -0.000002   0.000087  -0.000035
    33  H   -0.000000  -0.000000  -0.000081  -0.000000  -0.000160   0.000004
    34  H    0.000000  -0.000000   0.001782   0.000011   0.000100   0.000000
    35  H   -0.000000   0.000004   0.000155   0.000000   0.000620   0.000028
    36  C    0.000001  -0.000003  -0.004741  -0.000011  -0.000265   0.000075
    37  H    0.000000  -0.000005   0.000255   0.000002   0.000354   0.000751
    38  H   -0.000000  -0.000000  -0.000158  -0.000022  -0.000017   0.000011
    39  H   -0.000000  -0.000000   0.000039   0.000000  -0.000002  -0.000007
    40  C    0.000000   0.000033  -0.000000   0.000000   0.002958  -0.003026
    41  H   -0.000000  -0.000000  -0.000000  -0.000000  -0.000307   0.000516
    42  H   -0.000000   0.000016   0.000000  -0.000000   0.000282  -0.000493
    43  C    0.000000  -0.000001   0.000000   0.000000   0.000323  -0.000682
    44  H    0.000000   0.000000   0.000000  -0.000000  -0.000007   0.000022
    45  H   -0.000000  -0.000000  -0.000000  -0.000000  -0.000143   0.000313
    46  H    0.000000   0.000000   0.000000   0.000000  -0.000224   0.001293
    47  C    0.000000  -0.000001  -0.000000   0.000000   0.001752  -0.004603
    48  H   -0.000000   0.000000  -0.000000  -0.000000  -0.000368   0.000556
    49  H    0.000000   0.000001   0.000000  -0.000000   0.002636  -0.001230
    50  H   -0.000000   0.000007  -0.000000  -0.000000  -0.000717   0.000257
              13         14         15         16         17         18
     1  C   -0.000146   0.000161   0.000000  -0.000248   0.000584   0.000746
     2  C    0.005159  -0.002885   0.000315   0.003031  -0.017629  -0.021819
     3  C   -0.024792  -0.038742   0.004291  -0.003092  -0.011194   0.001100
     4  C   -0.013014   0.004166  -0.000101   0.000350  -0.000348  -0.000038
     5  C    0.000311  -0.000111   0.000003  -0.000021  -0.000027  -0.000004
     6  C   -0.000002  -0.000017  -0.000000  -0.000027  -0.000015  -0.000012
     7  H    0.000003   0.000017  -0.000000   0.000005   0.000061   0.000143
     8  H    0.000002  -0.008126   0.000400  -0.000959   0.004317  -0.000553
     9  H   -0.000006   0.000002  -0.000000   0.000000   0.000000  -0.000000
    10  H    0.000000   0.000000  -0.000000  -0.000000   0.000000   0.000000
    11  C    0.344239   0.324102  -0.030715  -0.039601  -0.014345   0.002328
    12  H   -0.023224  -0.036254  -0.000957   0.004874  -0.011890   0.000312
    13  H    0.601456  -0.035979  -0.004319  -0.002165   0.004109  -0.000171
    14  C   -0.035979   5.188722   0.356730   0.368065   0.344924  -0.065150
    15  H   -0.004319   0.356730   0.579294  -0.031401  -0.025732   0.001257
    16  H   -0.002165   0.368065  -0.031401   0.577745  -0.034643  -0.004676
    17  C    0.004109   0.344924  -0.025732  -0.034643   4.857731   0.513856
    18  C   -0.000171  -0.065150   0.001257  -0.004676   0.513856   5.054778
    19  C    0.000927  -0.060970  -0.006293   0.004747   0.547999  -0.021338
    20  C    0.000003   0.007209  -0.000244   0.000204  -0.027703   0.507357
    21  H   -0.000009  -0.009860   0.000360   0.006579  -0.040128   0.358628
    22  C    0.000010   0.009393  -0.000244  -0.000204  -0.051937  -0.056482
    23  C   -0.000000  -0.000129   0.000048   0.000015  -0.037732  -0.027320
    24  H   -0.000000  -0.000167   0.000003  -0.000008   0.003494  -0.039181
    25  H    0.000000  -0.000148   0.000001   0.000002   0.003738   0.000610
    26  H    0.000000   0.000009  -0.000000  -0.000000   0.000959   0.004169
    27  N    0.010021   0.000858   0.000002  -0.000010  -0.000018   0.000000
    28  N    0.001850  -0.007680  -0.000101  -0.000095  -0.066804   0.006265
    29  C   -0.000171  -0.000011   0.000000   0.000000   0.000000  -0.000000
    30  H    0.000029   0.000001   0.000000   0.000000  -0.000000  -0.000000
    31  H   -0.000015  -0.000001   0.000000  -0.000000   0.000000   0.000000
    32  C    0.000721  -0.000007  -0.000003  -0.000002   0.000001  -0.000000
    33  H   -0.000138  -0.000009   0.000000   0.000000   0.000000   0.000000
    34  H    0.000140   0.000004   0.000000  -0.000001  -0.000000   0.000000
    35  H    0.000385  -0.000070  -0.000002   0.000075   0.000001  -0.000000
    36  C   -0.000036  -0.000000   0.000000  -0.000000   0.000000   0.000000
    37  H    0.000058   0.000014  -0.000000   0.000000  -0.000003  -0.000000
    38  H   -0.000008  -0.000000   0.000000   0.000000   0.000000   0.000000
    39  H    0.000001   0.000000   0.000000  -0.000000  -0.000000   0.000000
    40  C   -0.000044   0.000200  -0.000019   0.000004   0.005813  -0.000141
    41  H    0.000003   0.000009  -0.000001  -0.000000  -0.000780   0.000008
    42  H   -0.000002  -0.000005  -0.000002   0.000000   0.000447  -0.000080
    43  C   -0.000025  -0.000014   0.000003  -0.000000  -0.000116   0.000003
    44  H    0.000000   0.000000  -0.000000   0.000000   0.000002  -0.000000
    45  H    0.000003  -0.000000   0.000000  -0.000000   0.000003  -0.000000
    46  H    0.000042   0.000020  -0.000001   0.000000  -0.000061  -0.000000
    47  C    0.000037  -0.000094   0.001776   0.000010  -0.010289  -0.000412
    48  H    0.000012   0.000103  -0.000043  -0.000002  -0.000323   0.000012
    49  H   -0.000215  -0.000403  -0.000029   0.000006   0.000671   0.000013
    50  H   -0.000004   0.001118   0.001846   0.000009   0.001624  -0.000352
              19         20         21         22         23         24
     1  C    0.000169  -0.000031  -0.000026  -0.000022  -0.000039   0.000001
     2  C   -0.001318  -0.000827   0.000513   0.000794   0.000278  -0.000051
     3  C   -0.001969   0.000096   0.000016  -0.000065   0.000034   0.000000
     4  C   -0.000102   0.000000  -0.000002   0.000004   0.000000   0.000000
[...]
 00048,-0.00001563,-0.00000703,0.00001518,0.00000295,0.00000244,-0.0000
 0404,-0.00001888,-0.00001362,-0.00001272,0.00000190,0.00000105,0.00001
 322,0.00000551,0.00000382,0.00002435,-0.00000490,-0.00000759,-0.000009
 67,-0.00000043,0.00000729,-0.00000697,0.00000021,-0.00000530,-0.000000
 57,-0.00000170,0.00000295,-0.01362313,-0.00561790,-0.01173878,-0.00362
 395,0.00110631,0.00036262,-0.00076759,-0.00021813,-0.00207223,0.000952
 03,0.00093669,-0.00012180,-0.00061532,-0.00023942,0.00003073,-0.000047
 93,-0.00011148,-0.00008375,-0.00084570,0.00000510,0.00065068,0.0107390
 4,0.56130535,-0.00000493,-0.00003285,0.00000483,0.00000092,0.00000143,
 0.00005530,-0.00016018,0.00006283,-0.00012163,0.00001795,0.00004558,0.
 00003222,0.00000125,-0.00002213,0.00000017,-0.00000414,0.00000086,0.00
 000310,-0.00000573,0.00000419,-0.00000606,-0.00002390,-0.00000144,-0.0
 0006410,0.00000487,-0.00000244,-0.00000438,0.00000280,0.00000082,-0.00
 000566,-0.00031723,-0.00035486,0.00019146,-0.00015181,0.00007746,-0.00
 012208,0.00009746,-0.00008274,0.00006999,0.00056041,0.00075696,-0.0000
 0198,0.00062328,-0.00136664,-0.00024157,-0.00010476,-0.00013215,0.0000
 0512,0.00144373,0.00201111,-0.00201117,-0.00101467,-0.00030612,-0.0003
 8264,0.02253464,0.00377016,0.00896986,0.00044862,0.00056068,-0.0004095
 1,0.00014839,0.00001647,-0.00019908,0.00166967,0.00078580,-0.00197395,
 -0.00075376,0.00013638,-0.00035823,0.00011762,0.00000129,-0.00000172,0
 .00021308,0.00000293,0.00026957,0.00005741,0.00021118,-0.00016276,-0.0
 0002076,-0.00001741,-0.00004135,-0.01437963,-0.00373099,-0.10280317,-0
 .00000080,0.00001492,-0.00000260,0.00000120,-0.00000078,-0.00000188,-0
 .00000232,-0.00001091,-0.00000283,0.00001972,-0.00000498,0.00002868,-0
 .00000246,-0.00002414,-0.00001052,-0.00001002,0.00000391,-0.00000888,0
 .00001654,0.00001580,0.00000073,-0.00000500,-0.00000193,0.00000360,0.0
 0000433,0.00000452,0.00000153,-0.00000518,0.00000062,-0.00000426,0.000
 00220,-0.00000334,-0.00000175,-0.03805793,-0.00795207,-0.01085023,-0.0
 0046224,0.00086626,0.00176688,-0.00166794,-0.00159785,-0.00649094,-0.0
 0051657,-0.00042209,-0.00084803,-0.00005585,0.00011097,0.00019749,-0.0
 0017004,0.00018602,-0.00006668,-0.00062093,-0.00006108,-0.00094685,-0.
 02582383,-0.00473470,0.61675464,0.00000718,0.00002639,0.00001095,-0.00
 000604,-0.00003447,-0.00002577,0.00013752,0.00008874,0.00007132,-0.000
 05624,-0.00006740,-0.00003936,0.00000058,0.00002851,0.00001452,-0.0000
 1325,-0.00000256,0.00000209,-0.00000294,-0.00000683,-0.00000083,0.0000
 2404,0.00002077,0.00002376,-0.00001213,0.00000373,0.00001036,-0.000009
 95,0.00000076,0.00000609,-0.00006156,0.00001492,-0.00024774,0.00018246
 ,-0.00013203,0.00020741,-0.00003531,0.00005177,0.00002981,-0.00007452,
 -0.00048864,-0.00021599,0.00011716,0.00007417,-0.00008700,-0.00000295,
 0.00005043,0.00005850,-0.00031684,-0.00039415,0.00209075,0.00048902,0.
 00080590,-0.00029265,0.00332174,0.00468163,-0.00541588,-0.00001715,-0.
 00079443,-0.00004291,-0.00012358,0.00000236,0.00006197,0.00003889,-0.0
 0046874,0.00002695,-0.00032763,-0.00012198,0.00043935,-0.00004736,-0.0
 0002971,-0.00001237,-0.00023434,-0.00017260,-0.00023029,-0.00005896,-0
 .00008691,0.00003285,-0.00001203,0.00004835,0.00004802,-0.04029894,0.0
 2119112,-0.00094572,0.00002010,-0.00004683,0.00000926,-0.00001117,0.00
 000827,0.00000183,0.00000277,0.00001284,0.00000412,-0.00000895,-0.0000
 0272,-0.00003575,0.00000652,0.00001265,0.00000914,-0.00000558,0.000002
 55,0.00001253,-0.00000646,0.00000359,-0.00000909,-0.00000391,0.0000046
 3,-0.00000226,-0.00000303,-0.00000789,-0.00000020,0.00000898,-0.000001
 95,0.00000351,-0.00000421,0.00000854,0.00000010,0.00145247,0.00204447,
 0.00565628,0.00114072,-0.00153457,-0.00150928,0.00039817,-0.00044866,0
 .00005432,-0.00006292,-0.00037875,-0.00033242,0.00011486,0.00009107,-0
 .00020284,0.00000167,-0.00013339,0.00019430,0.00009123,0.00013001,-0.0
 0009721,-0.10818609,0.10067749,0.01496562,0.13254178,-0.00000498,-0.00
 000728,-0.00000544,0.00003221,-0.00000096,-0.00000665,-0.00006667,-0.0
 0003819,0.00002003,0.00002655,0.00003795,0.00001769,-0.00000184,-0.000
 00837,-0.00000857,0.00001315,0.00000243,-0.00000409,0.00000682,0.00000
 665,0.00000141,-0.00001216,-0.00000653,-0.00000854,0.00000824,-0.00000
 395,-0.00000598,0.00000912,0.00000014,-0.00000276,0.00003907,0.0000502
 6,-0.00000198,-0.00006481,0.00001212,-0.00003170,-0.00000980,0.0000080
 6,0.00002055,-0.00028078,0.00004667,0.00017502,-0.00000839,0.00014226,
 0.00008630,0.00008496,-0.00000407,-0.00006273,0.00034229,-0.00010377,0
 .00023847,-0.00000228,0.00025313,-0.00004273,-0.00095302,0.00192059,0.
 00018470,0.00012741,-0.00012120,-0.00025329,-0.00001067,0.00000070,-0.
 00004936,0.00115404,0.00037651,-0.00119486,0.00003269,0.00012107,0.000
 39785,-0.00000692,0.00001409,-0.00002807,-0.00020922,0.00002091,0.0000
 3151,-0.00000070,0.00008941,-0.00007289,0.00003070,-0.00002791,-0.0000
 3962,0.00086138,0.00960962,0.00147611,-0.00002478,0.00003440,-0.000000
 25,0.00001523,-0.00000517,-0.00000704,-0.00000284,-0.00000422,0.000000
 98,-0.00000252,0.00000314,0.00003280,-0.00000489,-0.00000171,-0.000000
 17,0.00001391,-0.00000374,-0.00001209,-0.00000002,-0.00000915,0.000008
 41,-0.00000905,-0.00000302,0.00000684,0.00000619,0.00000759,-0.0000051
 6,-0.00000331,0.00000253,-0.00000136,0.00000492,-0.00000804,-0.0000011
 7,-0.00139367,0.00215853,0.00040566,0.00131906,0.00000381,0.00152368,-
 0.00002994,0.00025055,0.00025166,0.00008716,-0.00008246,0.00012999,0.0
 0006866,0.00003271,0.00002906,-0.00008881,-0.00002409,-0.00008283,0.00
 010490,-0.00017468,-0.00002800,0.09806381,-0.22200978,-0.02274472,-0.1
 1478423,0.23561500,-0.00000251,0.00000711,-0.00000136,0.00001464,-0.00
 001391,-0.00001910,0.00002966,-0.00007214,0.00005311,0.00001237,0.0000
 1733,0.00000765,-0.00000030,0.00000325,-0.00000800,0.00000600,-0.00000
 050,-0.00000363,0.00000425,0.00000157,0.00000124,0.00000288,0.00000052
 ,0.00000923,0.00000315,-0.00000052,-0.00000202,0.00000250,-0.00000034,
 0.00000094,0.00013234,0.00009491,-0.00011840,0.00001752,-0.00002064,0.
 00001015,-0.00001157,0.00000520,0.00000906,-0.00015173,-0.00022044,0.0
 0020816,0.00002894,0.00044816,-0.00000648,0.00012431,0.00004090,-0.000
 03761,0.00001682,-0.00035187,-0.00011266,-0.00005190,-0.00011943,0.000
 11236,0.00011407,-0.00045111,-0.00043409,-0.00005042,0.00014659,0.0001
 1461,-0.00000377,-0.00001098,0.00002673,-0.00034659,-0.00005701,0.0001
 3268,0.00006048,0.00007753,-0.00027367,0.00000468,0.00000835,0.0000078
 3,0.00005336,-0.00001319,0.00007133,0.00002536,-0.00001873,0.00002868,
 0.00001014,-0.00000949,-0.00000467,-0.00682584,0.00395080,0.00141162,-
 0.00000794,0.00001038,-0.00000143,0.00000417,-0.00000217,-0.00000075,-
 0.00000029,-0.00000077,0.00000038,-0.00000251,0.00000302,0.00000613,-0
 .00000126,0.00000184,0.00000090,0.00000611,-0.00000270,-0.00000245,-0.
 00000256,-0.00000585,0.00000526,0.00000028,-0.00000123,0.00000058,0.00
 000026,0.00000117,-0.00000148,-0.00000038,0.00000062,-0.00000015,0.000
 00086,-0.00000159,0.00000037,-0.00181019,0.00339432,0.00252568,0.00124
 969,-0.00050525,0.00052535,0.00018016,-0.00009761,0.00003028,0.0003589
 2,-0.00016065,-0.00029135,-0.00002573,0.00000634,-0.00001441,0.0000511
 7,-0.00009477,0.00004994,-0.00002483,0.00004900,0.00001138,0.01450004,
 -0.02135711,-0.05690251,-0.01311587,0.02442993,0.05163781,0.00000554,0
 .00001806,0.00000323,-0.00000243,-0.00000977,-0.00003204,0.00002691,0.
 00003459,-0.00002603,-0.00001219,-0.00003381,-0.00001924,0.00000212,0.
 00000834,0.00000428,-0.00000255,-0.00000004,-0.00000057,0.00000433,-0.
 00000360,0.00000278,0.00001092,-0.00000016,0.00002943,-0.00000299,0.00
 000118,0.00000478,-0.00000301,0.00000004,0.00000331,0.00006762,0.00010
 925,0.00007846,0.00002201,-0.00007262,0.00002326,-0.00007130,0.0000798
 0,-0.00000843,-0.00025739,-0.00015722,-0.00013589,0.00003866,0.0000019
 5,0.00003677,-0.00000400,0.00007978,0.00002773,-0.00002288,-0.00043165
 ,0.00004746,0.00023923,0.00010158,0.00005310,-0.00380764,-0.00312924,-
 0.00410443,-0.00011424,-0.00020852,0.00005693,-0.00004665,0.00000017,0
 .00008684,-0.00098840,-0.00009349,0.00121704,0.00033743,-0.00037571,0.
 00026165,-0.00005629,-0.00000919,0.00001189,-0.00013949,-0.00004465,-0
 .00021073,-0.00005638,-0.00013426,0.00011706,0.00000168,0.00003357,0.0
 0000596,-0.02110829,-0.02204944,0.02293471,0.00000794,-0.00003062,0.00
 001099,-0.00000252,0.00000609,-0.00000446,-0.00000026,0.00000774,0.000
 00248,0.00000156,-0.00001230,0.00000057,0.00000318,0.00000839,0.000004
 71,-0.00000003,0.00000245,0.,-0.00000666,0.00000524,-0.00000661,-0.000
 01189,0.00000515,0.00000291,0.00000458,-0.00000042,-0.00000151,0.00000
 282,-0.00000162,0.00000298,-0.00000053,0.00000307,-0.00000248,0.000753
 20,-0.00044203,0.00166429,-0.00010282,-0.00014757,-0.00051318,0.000065
 37,0.00010967,0.00005852,-0.00021082,0.00005948,-0.00023931,0.00026160
 ,0.00019537,0.00000683,-0.00010295,0.00004485,-0.00002283,0.00051601,0
 .00011491,-0.00080076,-0.08039361,-0.06125275,0.05265504,0.00758025,0.
 01127748,-0.01071268,0.09617740,0.00000166,0.00000683,0.00000012,-0.00
 000956,-0.00000054,-0.00000521,0.00002852,0.00002362,-0.00000778,-0.00
 001234,-0.00001852,-0.00000826,0.00000140,0.00000553,0.00000213,-0.000
 00413,-0.00000064,-0.00000039,-0.00000063,-0.00000361,0.00000180,0.000
 00776,-0.00000065,0.00001105,-0.00000299,0.00000081,0.00000343,-0.0000
 0280,-0.00000068,0.00000202,0.00000513,0.00004085,0.00001879,0.0000428
 8,-0.00002466,0.00004054,-0.00001036,0.00002249,-0.00000699,-0.0000349
 5,0.00000223,-0.00004259,-0.00008222,0.00004179,-0.00003136,-0.0000206
 6,0.00000697,0.00001823,0.00017442,-0.00012690,-0.00027911,-0.00003217
 ,-0.00018899,0.00015659,-0.00056011,0.00038238,-0.00101438,-0.00004045
 ,0.00013030,0.00009588,-0.00000534,0.00000259,0.00002587,-0.00017622,0
 .00015345,0.00009294,0.00008378,0.00005205,-0.00011977,-0.00001225,-0.
 00000391,0.00001467,0.00010404,0.00002384,0.00005115,-0.00002530,-0.00
 002151,-0.00000040,-0.00001135,0.00001906,0.00000918,-0.00476249,0.000
 02979,0.00081074,0.00000980,-0.00002218,0.00000427,-0.00000536,0.00000
 392,0.00000031,0.00000054,0.00000312,0.00000007,0.00000342,-0.00000687
 ,-0.00000566,0.00000242,0.00000240,0.00000086,-0.00000361,0.00000158,0
 .00000234,-0.00000229,0.00000514,-0.00000384,-0.00000078,0.00000354,-0
 .00000141,0.00000076,-0.00000257,0.00000152,0.00000086,-0.00000174,0.0
 0000151,-0.00000211,0.00000363,-0.00000050,-0.00045277,-0.00027946,0.0
 0120294,0.00018186,-0.00029006,-0.00001961,0.00009642,-0.00001190,-0.0
 0012445,-0.00056087,0.00008690,0.00062007,0.00045484,0.00008055,-0.000
 04537,0.00019610,-0.00007881,0.00003784,0.00073940,0.00050759,-0.00006
 845,-0.06537210,-0.18486885,0.11402588,-0.00861947,-0.01958013,0.01791
 836,0.07352893,0.19456909,-0.00000583,-0.00001094,-0.00000255,-0.00000
 509,0.00001227,0.00001897,0.00000033,-0.00001868,0.00001655,0.00000416
 ,0.00002404,0.00001808,-0.00000028,-0.00000485,-0.00000251,-0.00000006
 ,-0.00000248,-0.00000072,-0.00000437,0.00000017,-0.00000064,-0.0000059
 1,-0.00000230,-0.00001399,0.00000140,-0.00000013,-0.00000265,0.0000004
 7,-0.00000030,-0.00000179,-0.00003487,0.00000730,0.00000931,0.00000622
 ,0.00002441,-0.00000055,0.00003813,-0.00004298,-0.00000840,0.00014231,
 0.00016579,-0.00008464,-0.00008309,0.00013003,-0.00007118,0.00000056,-
 0.00003071,-0.00000878,-0.00001575,0.00008680,0.00005671,-0.00005942,-
 0.00015072,0.00013737,-0.00083579,-0.00046457,0.00073303,0.00000054,0.
 00016236,0.00005037,0.00001326,-0.00000393,-0.00002284,0.00009971,-0.0
 0035552,0.00032871,0.00011018,-0.00005071,-0.00019071,0.00000539,0.000
 00784,-0.00000997,0.00001672,-0.00000517,-0.00000728,-0.00003418,0.000
 00996,-0.00001156,-0.00001272,-0.00002509,0.00000004,-0.00271412,-0.00
 603653,0.00645578,0.00000261,0.00001679,-0.00000572,-0.00000234,-0.000
 00372,0.00000416,-0.00000004,-0.00000707,-0.00000482,0.00000379,0.0000
 1228,-0.00000449,-0.00000205,-0.00000768,-0.00000600,-0.00000402,-0.00
 000191,0.00000163,0.00000464,-0.00000269,0.00000222,0.00001175,-0.0000
 0246,-0.00000477,-0.00000287,0.00000059,0.00000507,-0.00000490,-0.0000
 0058,-0.00000151,-0.00000004,-0.00000116,0.00000191,0.00036901,-0.0006
 1683,-0.00006105,-0.00017692,0.00002025,-0.00000527,0.00011761,0.00014
 477,0.00013997,-0.00066770,0.00014840,-0.00121981,-0.00010801,-0.00009
 361,0.00017472,0.00007732,-0.00000516,-0.00001464,-0.00113462,0.000035
 31,-0.00193038,0.05819600,0.11529114,-0.15090173,-0.00199110,-0.004162
 45,0.00333029,-0.06163980,-0.12692252,0.15961597,-0.00000504,0.0000062
 9,-0.00000128,0.00004329,-0.00003721,-0.00002347,-0.00002790,-0.000058
 12,0.00011994,0.00002264,0.00003830,0.00002246,-0.00000655,0.00000247,
 -0.00000926,0.00001459,0.00000056,-0.00000163,0.00000787,0.00000589,-0
 .00000228,-0.00000346,0.00000493,-0.00000801,0.00000588,-0.00000119,-0
 .00000453,0.00000431,0.00000068,-0.00000056,0.00003966,0.00009866,-0.0
 0024946,0.00004178,-0.00001861,0.00005526,0.00001146,-0.00000811,0.000
 02810,-0.00080643,0.00004811,0.00012866,-0.00073831,0.00124290,0.00020
 546,0.00020249,0.00000924,-0.00007052,-0.00025741,-0.00031342,-0.00005
 485,-0.00010906,-0.00015037,0.00022555,0.00091962,-0.00040736,-0.00171
 524,-0.00002880,0.00023284,0.00007820,-0.00000884,-0.00000352,-0.00001
 848,-0.00012144,-0.00021117,0.00040909,0.00003025,-0.00000301,-0.00029
 919,0.00001254,0.00003041,-0.00000174,0.00001756,0.00006465,0.00001688
 ,-0.00001972,-0.00000090,0.00001780,0.00001693,-0.00003231,-0.00001568
 ,-0.00701530,-0.01072067,-0.03611469,-0.00001468,0.00003380,-0.0000050
 6,0.00000837,-0.00000665,-0.00000093,-0.00000059,-0.00000576,-0.000000
 68,-0.00000243,0.00001662,0.00001280,-0.00000323,-0.00000522,-0.000001
 86,0.00000794,-0.00000606,-0.00000507,0.00000230,-0.00001091,0.0000107
 1,0.00000086,-0.00000620,0.00000136,0.00000013,0.00000397,-0.00000181,
 -0.00000180,0.00000198,-0.00000207,0.00000279,-0.00000439,0.00000116,-
 0.00663745,-0.00158983,0.00125826,0.00008124,-0.00032566,-0.00012416,-
 0.00037129,-0.00072000,-0.00209484,-0.00011511,-0.00028892,0.00042284,
 0.00016846,0.00010887,-0.00006048,0.00004163,0.00005137,0.00000440,0.0
 0031649,0.00023510,-0.00011114,-0.05109272,-0.00424218,-0.01126413,0.0
 0232592,0.00424635,0.01613376,0.00139788,0.00516073,0.01032380,0.06164
 269,-0.00000762,-0.00000651,0.00000854,-0.00000790,-0.00000093,0.00001
 224,0.00003587,-0.00000851,-0.00003590,-0.00000998,-0.00000073,0.00000
 639,0.00000663,0.00000093,0.00000260,-0.00000611,-0.00000664,-0.000002
 57,-0.00000368,-0.00000151,-0.00000101,-0.00000383,0.00000445,-0.00001
 304,-0.00000206,0.00000177,0.00000045,-0.00000285,0.00000064,-0.000001
 06,-0.00006523,-0.00005100,0.00004759,0.00002277,-0.00000575,-0.000003
 31,0.00003107,-0.00002987,0.00001933,0.00071837,0.00035041,-0.00013343
 ,0.00069484,-0.00043694,-0.00019232,-0.00003805,-0.00002564,0.00000080
 ,-0.00005776,0.00024637,0.00024829,-0.00001625,-0.00008945,0.00006814,
 -0.00004093,0.00001305,-0.00113212,0.00001137,-0.00003704,0.00003375,-
 0.00002528,0.00000312,-0.00003949,0.00003553,-0.00026296,-0.00009496,-
 0.00002521,-0.00001600,0.00001886,-0.00000487,0.00000260,-0.00000210,-
 0.00001132,0.00008381,-0.00000009,-0.00000524,0.00000297,-0.00000220,-
 0.00001489,-0.00000120,0.00001502,-0.00238910,-0.00250962,-0.00429192,
 0.00000926,-0.00000260,-0.00000054,-0.00000525,0.00000026,0.00000292,0
 .00000103,-0.00000090,-0.00000200,-0.00000124,0.00000944,-0.00001650,0
 .00000107,-0.00000300,-0.00000213,-0.00000636,-0.00000009,0.00000525,0
 .00000332,0.00000054,-0.00000305,0.00000560,-0.00000073,-0.00000330,-0
 .00000217,-0.00000179,0.00000357,-0.00000068,-0.00000068,-0.00000013,-
 0.00000122,0.00000149,0.00000106,-0.00172257,-0.00042223,0.00052389,0.
 00005674,0.00032698,0.00039820,-0.00022902,0.00025522,-0.00053007,-0.0
 0010919,0.00004864,0.00026296,0.00016042,0.00007068,0.00000738,0.00005
 299,0.00003100,-0.00002487,0.00031010,0.00010565,-0.00017639,-0.006351
 00,-0.07616909,-0.08006665,-0.00132678,-0.00859241,-0.02702721,0.00280
 358,0.00932116,0.02273294,0.00753305,0.07780264,-0.00000673,0.00001019
 ,0.00000981,0.00003492,-0.00003278,-0.00003845,0.00003371,-0.00006496,
 0.00008505,0.00000521,0.00000474,0.00000412,0.00000160,0.00000870,-0.0
 0000424,0.00000981,-0.00000291,-0.00000528,0.00000870,0.00000423,-0.00
 000074,-0.00000239,0.00000888,0.00000270,0.00000211,0.00000041,-0.0000
 0238,0.00000227,0.00000140,0.00000008,0.00012364,0.00006536,-0.0001404
 4,0.00004063,-0.00002043,0.00004164,-0.00002332,0.00002221,0.00001877,
 0.00026456,-0.00028250,0.00006682,0.00042081,0.00031213,-0.00002299,0.
 00020128,0.00005809,-0.00008703,0.00062530,-0.00061611,0.00022215,-0.0
 0025014,-0.00007308,0.00024818,0.00106008,0.00175795,-0.00026190,-0.00
 005536,0.00025430,0.00011021,-0.00001331,-0.00003460,0.00005335,-0.000
 15242,-0.00059418,0.00031743,0.00016672,0.00001361,-0.00029602,0.00000
 926,0.00001090,0.00001566,0.00000001,0.00005689,0.00000681,-0.00000704
 ,-0.00001515,0.00001577,0.00002695,-0.00000908,-0.00000050,-0.00293878
 ,-0.00173039,-0.00625805,-0.00001508,0.00001699,-0.00000202,0.00000824
 ,-0.00000333,-0.00000202,0.00000047,0.00000254,0.00000370,-0.00001164,
 0.00000710,0.00000145,-0.00000065,0.00000614,0.00000515,0.00001017,-0.
 00000342,-0.00000160,-0.00000330,-0.00001042,0.00000687,-0.00000430,-0
 .00000389,0.00000327,-0.00000044,0.00000136,-0.00000538,0.00000360,0.0
 0000258,-0.00000014,0.00000178,-0.00000261,0.00000046,-0.00125189,-0.0
 0004491,0.00192098,0.00019981,-0.00000646,-0.00002973,-0.00016621,-0.0
 0019431,-0.00042707,0.00012037,-0.00024699,0.00013863,-0.00009767,-0.0
 0001803,-0.00008598,-0.00007686,0.00005161,-0.00000482,-0.00014483,-0.
 00010150,0.00017972,-0.02081802,-0.08087730,-0.29240446,0.00080681,-0.
 00060412,-0.00209348,-0.00093502,-0.00646305,-0.01649992,0.02278661,0.
 08937818,0.31519587\\-0.00000032,-0.00000122,0.00000074,0.00000111,-0.
 00000020,-0.00000006,0.00000385,0.00000317,0.00000876,-0.00000337,-0.0
 0000550,-0.00000152,0.00000022,0.00000301,-0.00000066,0.00000015,-0.00
 000065,0.00000015,0.00000020,-0.00000033,0.00000215,0.00000256,-0.0000
 0208,-0.00000041,0.00000026,0.00000083,-0.00000165,0.00000038,0.000000
 39,0.00000038,-0.00000380,-0.00000198,-0.00001176,-0.00000023,-0.00000
 367,-0.00000009,0.00000065,0.00000108,0.00000011,0.00000610,-0.0000007
 1,0.00000104,-0.00000155,0.00000195,-0.00000096,-0.00000026,0.00000150
 ,-0.00000027,-0.00000636,0.00000067,0.00000571,0.00000045,0.00000480,-
 0.00000027,-0.00000110,-0.00000624,0.00000203,0.00000034,-0.00000117,0
 .00000193,0.00000074,0.00000086,0.00000091,0.00000202,0.00000357,0.000
 00063,-0.00000007,-0.00000024,0.00000514,0.00000097,0.00000159,0.00000
 272,-0.00000012,-0.00000122,0.00000286,0.00000064,0.00000066,0.0000039
 4,0.00000097,0.00000634,-0.00000619,-0.00000042,0.00000920,-0.00000227
 ,0.,-0.00000040,-0.00000077,-0.00000055,0.00000286,-0.00000271,0.00000
 047,0.00000146,-0.00000291,0.00000128,0.00000055,-0.00000015,0.0000005
 9,0.00000310,-0.00000146,-0.00000021,0.00000237,-0.00000133,0.00000091
 ,0.00000231,-0.00000089,0.00000104,-0.00000080,-0.00000118,-0.00000050
 ,-0.00000014,-0.00000397,-0.00000085,-0.00000240,-0.00000250,-0.000001
 23,-0.00000046,-0.00000325,0.00000182,-0.00000229,0.00000223,-0.000000
 39,-0.00000161,0.00000033,-0.00000112,-0.00000211,0.00000140,-0.000002
 05,-0.00000333,0.00000021,-0.00000108,-0.00000420,0.00000056,-0.000000
 74,-0.00000169,-0.00000037,-0.00000120,-0.00000260,0.00000033,-0.00000
 284,-0.00000342,0.00000149,0.00000127,-0.00000104,0.00000159,0.0000005
 6,-0.00000161,0.00000010,0.00000085,0.00000108,0.00000017\\\@
 The archive entry for this job was punched.


 A FOOL CAN ASK MORE QUESTIONS THAN
 A WISE MAN CAN ANSWER.
 Job cpu time:       0 days  5 hours  5 minutes 12.3 seconds.
 Elapsed time:       0 days  0 hours 38 minutes 10.4 seconds.
 File lengths (MBytes):  RWF=   1063 Int=      0 D2E=      0 Chk=     27 Scr=      1
 Normal termination of Gaussian 16 at Thu Oct 21 20:52:35 2021.
