 Entering Gaussian System, Link 0=/home/rong/g16/g16
 Input=/home/rong/g16/102121/benzbenzNCH2PhCH2CH3.gjf
 Output=/home/rong/g16/102121/benzbenzNCH2PhCH2CH3.log
 Initial command:
 /home/rong/g16/l1.exe "/tmp/Gau-31134.inp" -scrdir="/tmp/"
 Default is to use a total of   8 processors:
                                8 via shared-memory
                                1 via Linda
 Entering Link 1 = /home/rong/g16/l1.exe PID=     31137.
  
 Copyright (c) 1988-2019, Gaussian, Inc.  All Rights Reserved.
  
 This is part of the Gaussian(R) 16 program.  It is based on
 the Gaussian(R) 09 system (copyright 2009, Gaussian, Inc.),
 the Gaussian(R) 03 system (copyright 2003, Gaussian, Inc.),
 the Gaussian(R) 98 system (copyright 1998, Gaussian, Inc.),
 the Gaussian(R) 94 system (copyright 1995, Gaussian, Inc.),
 the Gaussian 92(TM) system (copyright 1992, Gaussian, Inc.),
 the Gaussian 90(TM) system (copyright 1990, Gaussian, Inc.),
 the Gaussian 88(TM) system (copyright 1988, Gaussian, Inc.),
 the Gaussian 86(TM) system (copyright 1986, Carnegie Mellon
 University), and the Gaussian 82(TM) system (copyright 1983,
 Carnegie Mellon University). Gaussian is a federally registered
 trademark of Gaussian, Inc.
  
 This software contains proprietary and confidential information,
 including trade secrets, belonging to Gaussian, Inc.
  
 This software is provided under written license and may be
 used, copied, transmitted, or stored only in accord with that
 written license.
  
 The following legend is applicable only to US Government
 contracts under FAR:
  
                    RESTRICTED RIGHTS LEGEND
  
 Use, reproduction and disclosure by the US Government is
 subject to restrictions as set forth in subparagraphs (a)
 and (c) of the Commercial Computer Software - Restricted
 Rights clause in FAR 52.227-19.
  
 Gaussian, Inc.
 340 Quinnipiac St., Bldg. 40, Wallingford CT 06492
  
  
 ---------------------------------------------------------------
 Warning -- This program may not be used in any manner that
 competes with the business of Gaussian, Inc. or will provide
 assistance to any competitor of Gaussian, Inc.  The licensee
 of this program is prohibited from giving any competitor of
 Gaussian, Inc. access to this program.  By using this program,
 the user acknowledges that Gaussian, Inc. is engaged in the
 business of creating and licensing software in the field of
 computational chemistry and represents and warrants to the
 licensee that it is not a competitor of Gaussian, Inc. and that
 it will not use this program in any manner prohibited above.
 ---------------------------------------------------------------
  

 Cite this work as:
 Gaussian 16, Revision C.01,
 M. J. Frisch, G. W. Trucks, H. B. Schlegel, G. E. Scuseria, 
 M. A. Robb, J. R. Cheeseman, G. Scalmani, V. Barone, 
 G. A. Petersson, H. Nakatsuji, X. Li, M. Caricato, A. V. Marenich, 
 J. Bloino, B. G. Janesko, R. Gomperts, B. Mennucci, H. P. Hratchian, 
 J. V. Ortiz, A. F. Izmaylov, J. L. Sonnenberg, D. Williams-Young, 
 F. Ding, F. Lipparini, F. Egidi, J. Goings, B. Peng, A. Petrone, 
 T. Henderson, D. Ranasinghe, V. G. Zakrzewski, J. Gao, N. Rega, 
 G. Zheng, W. Liang, M. Hada, M. Ehara, K. Toyota, R. Fukuda, 
 J. Hasegawa, M. Ishida, T. Nakajima, Y. Honda, O. Kitao, H. Nakai, 
 T. Vreven, K. Throssell, J. A. Montgomery, Jr., J. E. Peralta, 
 F. Ogliaro, M. J. Bearpark, J. J. Heyd, E. N. Brothers, K. N. Kudin, 
 V. N. Staroverov, T. A. Keith, R. Kobayashi, J. Normand, 
 K. Raghavachari, A. P. Rendell, J. C. Burant, S. S. Iyengar, 
 J. Tomasi, M. Cossi, J. M. Millam, M. Klene, C. Adamo, R. Cammi, 
 J. W. Ochterski, R. L. Martin, K. Morokuma, O. Farkas, 
 J. B. Foresman, and D. J. Fox, Gaussian, Inc., Wallingford CT, 2019.
 
 ******************************************
 Gaussian 16:  ES64L-G16RevC.01  3-Jul-2019
                21-Oct-2021 
 ******************************************
 %mem=15GB
 %chk=benzbenzNCH2PhCH2CH3.chk
 %nprocshared=8
 Will use up to    8 processors via shared memory.
 ----------------------------------------------------
 # opt freq b3lyp/6-31g(d) scrf=(smd,solvent=toluene)
 ----------------------------------------------------
 1/18=20,19=15,26=3,38=1/1,3;
 2/9=110,12=2,17=6,18=5,40=1/2;
 3/5=1,6=6,7=1,11=2,25=1,30=1,70=32201,71=1,72=13,74=-5/1,2,3;
 4//1;
 5/5=2,38=5,53=13/2;
 6/7=2,8=2,9=2,10=2,28=1/1;
 7//1,2,3,16;
 1/18=20,19=15,26=3/3(2);
 2/9=110/2;
 99//99;
 2/9=110/2;
 3/5=1,6=6,7=1,11=2,25=1,30=1,70=32205,71=1,72=13,74=-5/1,2,3;
 4/5=5,16=3,69=1/1;
 5/5=2,38=5,53=13/2;
 7//1,2,3,16;
 1/18=20,19=15,26=3/3(-5);
 2/9=110/2;
 6/7=2,8=2,9=2,10=2,19=2,28=1/1;
 99/9=1/99;
 --------------------
 benzbenzNCH2PhCH2CH3
 --------------------
 Symbolic Z-matrix:
 Charge =  0 Multiplicity = 1
 C                    -2.72059   1.55882   0. 
 C                    -1.32543   1.55882   0. 
 C                    -0.62789   2.76657   0. 
 C                    -1.32554   3.97508  -0.0012 
 C                    -2.72037   3.97501  -0.00168 
 C                    -3.41797   2.7668   -0.00068 
 H                    -3.27035   0.60651   0.00045 
 H                    -0.77592   0.60631   0.00132 
 H                    -3.27049   4.92729  -0.00263 
 H                    -4.51757   2.76698  -0.00086 
 C                     0.91211   2.76669   0.00089 
 H                     1.26936   2.7791   -1.00764 
 H                     1.26842   3.6341    0.51619 
 C                     1.42513   1.5005    0.71165 
 H                     2.47335   1.59863   0.90266 
 H                     0.904     1.37543   1.63777 
 C                     1.1795    0.27308  -0.18541 
 C                     0.67497  -0.90465   0.36674 
 C                     1.46131   0.33879  -1.54989 
 C                     0.45296  -2.01659  -0.44537 
 H                     0.45363  -0.95637   1.44264 
 C                     1.23836  -0.77309  -2.36256 
 C                     0.7344   -1.95072  -1.81054 
 H                     0.05588  -2.94513  -0.01012 
 H                     1.46026  -0.72086  -3.43844 
 H                     0.55922  -2.82756  -2.45067 
 N                    -0.59006   5.24786  -0.00128 
 N                     1.99269   1.57967  -2.13192 
 C                    -1.22379   6.17993  -0.94496 
 H                    -2.10154   6.59804  -0.49813 
 H                    -0.53776   6.96491  -1.18593 
 C                    -0.61302   5.82714   1.34958 
 H                     0.14293   6.58038   1.42754 
 H                    -1.57219   6.26401   1.53406 
 C                    -1.61178   5.42485  -2.22984 
 H                    -0.89406   4.65475  -2.42148 
 H                    -2.58049   4.98718  -2.10761 
 H                    -1.63035   6.10799  -3.05317 
 C                     1.58874   1.67158  -3.54234 
 H                     2.18167   1.0002   -4.12764 
 H                     0.5557    1.40874  -3.63533 
 C                     1.79897   3.11243  -4.04368 
 H                     2.41771   3.09965  -4.91655 
 H                     0.85177   3.54813  -4.28427 
 H                     2.27349   3.69062  -3.27855 
 C                     3.45991   1.57411  -2.0418 
 H                     3.86829   1.08745  -2.90279 
 H                     3.81837   2.58132  -1.99784 
 C                     3.89333   0.81907  -0.7715 
 C                     4.04061  -0.56799  -0.80058 
 C                     4.13877   1.52186   0.40807 
 C                     4.43258  -1.2521    0.34989 
 H                     3.84629  -1.12185  -1.73048 
 C                     4.53182   0.8378    1.55872 
 H                     4.02291   2.6151    0.43112 
 C                     4.67862  -0.54898   1.52985 
 H                     4.54808  -2.34546   0.32722 
 H                     4.72566   1.39223   2.48851 
 H                     4.98772  -1.08858   2.43681 
 C                    -0.34457   4.72114   2.38703 
 C                    -1.40111   3.95265   2.87655 
 C                     0.95479   4.48759   2.83721 
 C                    -1.15834   2.9513    3.81654 
 H                    -2.42549   4.13753   2.522 
 C                     1.19794   3.48532   3.77676 
 H                     1.78764   5.09307   2.45137 
 C                     0.14164   2.71729   4.26656 
 H                    -1.99114   2.34595   4.2029 
 H                     2.22258   3.30113   4.13122 
 H                     0.33282   1.92767   5.00768 
 

 GradGradGradGradGradGradGradGradGradGradGradGradGradGradGradGradGradGrad
 Berny optimization.
 Initialization pass.
                           ----------------------------
                           !    Initial Parameters    !
                           ! (Angstroms and Degrees)  !
 --------------------------                            --------------------------
 ! Name  Definition              Value          Derivative Info.                !
 --------------------------------------------------------------------------------
 ! R1    R(1,2)                  1.3952         estimate D2E/DX2                !
 ! R2    R(1,6)                  1.3948         estimate D2E/DX2                !
 ! R3    R(1,7)                  1.0996         estimate D2E/DX2                !
 ! R4    R(2,3)                  1.3947         estimate D2E/DX2                !
 ! R5    R(2,8)                  1.0997         estimate D2E/DX2                !
 ! R6    R(3,4)                  1.3954         estimate D2E/DX2                !
 ! R7    R(3,11)                 1.54           estimate D2E/DX2                !
 ! R8    R(4,5)                  1.3948         estimate D2E/DX2                !
 ! R9    R(4,27)                 1.47           estimate D2E/DX2                !
 ! R10   R(5,6)                  1.3951         estimate D2E/DX2                !
 ! R11   R(5,9)                  1.0998         estimate D2E/DX2                !
 ! R12   R(6,10)                 1.0996         estimate D2E/DX2                !
 ! R13   R(11,12)                1.07           estimate D2E/DX2                !
 ! R14   R(11,13)                1.07           estimate D2E/DX2                !
 ! R15   R(11,14)                1.54           estimate D2E/DX2                !
 ! R16   R(14,15)                1.07           estimate D2E/DX2                !
 ! R17   R(14,16)                1.07           estimate D2E/DX2                !
 ! R18   R(14,17)                1.54           estimate D2E/DX2                !
 ! R19   R(17,18)                1.3952         estimate D2E/DX2                !
 ! R20   R(17,19)                1.3948         estimate D2E/DX2                !
 ! R21   R(18,20)                1.3947         estimate D2E/DX2                !
 ! R22   R(18,21)                1.0997         estimate D2E/DX2                !
 ! R23   R(19,22)                1.3951         estimate D2E/DX2                !
 ! R24   R(19,28)                1.47           estimate D2E/DX2                !
 ! R25   R(20,23)                1.3954         estimate D2E/DX2                !
 ! R26   R(20,24)                1.0997         estimate D2E/DX2                !
 ! R27   R(22,23)                1.3948         estimate D2E/DX2                !
 ! R28   R(22,25)                1.0998         estimate D2E/DX2                !
 ! R29   R(23,26)                1.0997         estimate D2E/DX2                !
 ! R30   R(27,29)                1.47           estimate D2E/DX2                !
 ! R31   R(27,32)                1.47           estimate D2E/DX2                !
 ! R32   R(28,39)                1.47           estimate D2E/DX2                !
 ! R33   R(28,46)                1.47           estimate D2E/DX2                !
 ! R34   R(29,30)                1.07           estimate D2E/DX2                !
 ! R35   R(29,31)                1.07           estimate D2E/DX2                !
 ! R36   R(29,35)                1.54           estimate D2E/DX2                !
 ! R37   R(32,33)                1.07           estimate D2E/DX2                !
 ! R38   R(32,34)                1.07           estimate D2E/DX2                !
 ! R39   R(32,60)                1.54           estimate D2E/DX2                !
 ! R40   R(35,36)                1.07           estimate D2E/DX2                !
 ! R41   R(35,37)                1.07           estimate D2E/DX2                !
 ! R42   R(35,38)                1.07           estimate D2E/DX2                !
 ! R43   R(39,40)                1.07           estimate D2E/DX2                !
 ! R44   R(39,41)                1.07           estimate D2E/DX2                !
 ! R45   R(39,42)                1.54           estimate D2E/DX2                !
 ! R46   R(42,43)                1.07           estimate D2E/DX2                !
 ! R47   R(42,44)                1.07           estimate D2E/DX2                !
 ! R48   R(42,45)                1.07           estimate D2E/DX2                !
 ! R49   R(46,47)                1.07           estimate D2E/DX2                !
 ! R50   R(46,48)                1.07           estimate D2E/DX2                !
 ! R51   R(46,49)                1.54           estimate D2E/DX2                !
 ! R52   R(49,50)                1.3952         estimate D2E/DX2                !
 ! R53   R(49,51)                1.3948         estimate D2E/DX2                !
 ! R54   R(50,52)                1.3947         estimate D2E/DX2                !
 ! R55   R(50,53)                1.0997         estimate D2E/DX2                !
 ! R56   R(51,54)                1.3951         estimate D2E/DX2                !
 ! R57   R(51,55)                1.0996         estimate D2E/DX2                !
 ! R58   R(52,56)                1.3954         estimate D2E/DX2                !
 ! R59   R(52,57)                1.0997         estimate D2E/DX2                !
 ! R60   R(54,56)                1.3948         estimate D2E/DX2                !
 ! R61   R(54,58)                1.0998         estimate D2E/DX2                !
 ! R62   R(56,59)                1.0997         estimate D2E/DX2                !
 ! R63   R(60,61)                1.3952         estimate D2E/DX2                !
 ! R64   R(60,62)                1.3948         estimate D2E/DX2                !
 ! R65   R(61,63)                1.3947         estimate D2E/DX2                !
 ! R66   R(61,64)                1.0997         estimate D2E/DX2                !
 ! R67   R(62,65)                1.3951         estimate D2E/DX2                !
 ! R68   R(62,66)                1.0996         estimate D2E/DX2                !
 ! R69   R(63,67)                1.3954         estimate D2E/DX2                !
 ! R70   R(63,68)                1.0997         estimate D2E/DX2                !
 ! R71   R(65,67)                1.3948         estimate D2E/DX2                !
 ! R72   R(65,69)                1.0998         estimate D2E/DX2                !
 ! R73   R(67,70)                1.0997         estimate D2E/DX2                !
 ! A1    A(2,1,6)              119.9985         estimate D2E/DX2                !
 ! A2    A(2,1,7)              119.9972         estimate D2E/DX2                !
 ! A3    A(6,1,7)              120.0043         estimate D2E/DX2                !
 ! A4    A(1,2,3)              120.0086         estimate D2E/DX2                !
 ! A5    A(1,2,8)              119.9808         estimate D2E/DX2                !
 ! A6    A(3,2,8)              120.0106         estimate D2E/DX2                !
 ! A7    A(2,3,4)              119.9942         estimate D2E/DX2                !
 ! A8    A(2,3,11)             120.0128         estimate D2E/DX2                !
 ! A9    A(4,3,11)             119.993          estimate D2E/DX2                !
 ! A10   A(3,4,5)              119.994          estimate D2E/DX2                !
 ! A11   A(3,4,27)             119.9811         estimate D2E/DX2                !
 ! A12   A(5,4,27)             120.0249         estimate D2E/DX2                !
 ! A13   A(4,5,6)              120.0047         estimate D2E/DX2                !
 ! A14   A(4,5,9)              120.0113         estimate D2E/DX2                !
 ! A15   A(6,5,9)              119.984          estimate D2E/DX2                !
 ! A16   A(1,6,5)              120.0            estimate D2E/DX2                !
 ! A17   A(1,6,10)             120.008          estimate D2E/DX2                !
 ! A18   A(5,6,10)             119.992          estimate D2E/DX2                !
 ! A19   A(3,11,12)            109.4712         estimate D2E/DX2                !
 ! A20   A(3,11,13)            109.4712         estimate D2E/DX2                !
 ! A21   A(3,11,14)            109.4712         estimate D2E/DX2                !
 ! A22   A(12,11,13)           109.4713         estimate D2E/DX2                !
 ! A23   A(12,11,14)           109.4712         estimate D2E/DX2                !
 ! A24   A(13,11,14)           109.4712         estimate D2E/DX2                !
 ! A25   A(11,14,15)           109.4712         estimate D2E/DX2                !
 ! A26   A(11,14,16)           109.4712         estimate D2E/DX2                !
 ! A27   A(11,14,17)           109.4712         estimate D2E/DX2                !
 ! A28   A(15,14,16)           109.4712         estimate D2E/DX2                !
 ! A29   A(15,14,17)           109.4713         estimate D2E/DX2                !
 ! A30   A(16,14,17)           109.4712         estimate D2E/DX2                !
 ! A31   A(14,17,18)           119.9972         estimate D2E/DX2                !
 ! A32   A(14,17,19)           120.0043         estimate D2E/DX2                !
 ! A33   A(18,17,19)           119.9985         estimate D2E/DX2                !
 ! A34   A(17,18,20)           120.0086         estimate D2E/DX2                !
 ! A35   A(17,18,21)           119.9808         estimate D2E/DX2                !
 ! A36   A(20,18,21)           120.0106         estimate D2E/DX2                !
 ! A37   A(17,19,22)           120.0            estimate D2E/DX2                !
 ! A38   A(17,19,28)           120.008          estimate D2E/DX2                !
 ! A39   A(22,19,28)           119.992          estimate D2E/DX2                !
 ! A40   A(18,20,23)           119.9942         estimate D2E/DX2                !
 ! A41   A(18,20,24)           120.0128         estimate D2E/DX2                !
 ! A42   A(23,20,24)           119.993          estimate D2E/DX2                !
 ! A43   A(19,22,23)           120.0047         estimate D2E/DX2                !
 ! A44   A(19,22,25)           119.984          estimate D2E/DX2                !
 ! A45   A(23,22,25)           120.0113         estimate D2E/DX2                !
 ! A46   A(20,23,22)           119.994          estimate D2E/DX2                !
 ! A47   A(20,23,26)           119.9811         estimate D2E/DX2                !
 ! A48   A(22,23,26)           120.0249         estimate D2E/DX2                !
 ! A49   A(4,27,29)            109.4712         estimate D2E/DX2                !
 ! A50   A(4,27,32)            109.4712         estimate D2E/DX2                !
 ! A51   A(29,27,32)           109.4713         estimate D2E/DX2                !
 ! A52   A(19,28,39)           109.4712         estimate D2E/DX2                !
 ! A53   A(19,28,46)           109.4712         estimate D2E/DX2                !
 ! A54   A(39,28,46)           109.4713         estimate D2E/DX2                !
 ! A55   A(27,29,30)           109.4712         estimate D2E/DX2                !
 ! A56   A(27,29,31)           109.4712         estimate D2E/DX2                !
 ! A57   A(27,29,35)           109.4712         estimate D2E/DX2                !
 ! A58   A(30,29,31)           109.4713         estimate D2E/DX2                !
 ! A59   A(30,29,35)           109.4712         estimate D2E/DX2                !
 ! A60   A(31,29,35)           109.4712         estimate D2E/DX2                !
 ! A61   A(27,32,33)           109.4712         estimate D2E/DX2                !
 ! A62   A(27,32,34)           109.4712         estimate D2E/DX2                !
 ! A63   A(27,32,60)           109.4712         estimate D2E/DX2                !
 ! A64   A(33,32,34)           109.4713         estimate D2E/DX2                !
 ! A65   A(33,32,60)           109.4712         estimate D2E/DX2                !
 ! A66   A(34,32,60)           109.4712         estimate D2E/DX2                !
 ! A67   A(29,35,36)           109.4712         estimate D2E/DX2                !
 ! A68   A(29,35,37)           109.4712         estimate D2E/DX2                !
 ! A69   A(29,35,38)           109.4712         estimate D2E/DX2                !
 ! A70   A(36,35,37)           109.4713         estimate D2E/DX2                !
 ! A71   A(36,35,38)           109.4712         estimate D2E/DX2                !
 ! A72   A(37,35,38)           109.4712         estimate D2E/DX2                !
 ! A73   A(28,39,40)           109.4712         estimate D2E/DX2                !
 ! A74   A(28,39,41)           109.4712         estimate D2E/DX2                !
 ! A75   A(28,39,42)           109.4712         estimate D2E/DX2                !
 ! A76   A(40,39,41)           109.4712         estimate D2E/DX2                !
 ! A77   A(40,39,42)           109.4713         estimate D2E/DX2                !
 ! A78   A(41,39,42)           109.4712         estimate D2E/DX2                !
 ! A79   A(39,42,43)           109.4712         estimate D2E/DX2                !
 ! A80   A(39,42,44)           109.4712         estimate D2E/DX2                !
 ! A81   A(39,42,45)           109.4712         estimate D2E/DX2                !
 ! A82   A(43,42,44)           109.4713         estimate D2E/DX2                !
 ! A83   A(43,42,45)           109.4712         estimate D2E/DX2                !
 ! A84   A(44,42,45)           109.4712         estimate D2E/DX2                !
 ! A85   A(28,46,47)           109.4712         estimate D2E/DX2                !
 ! A86   A(28,46,48)           109.4712         estimate D2E/DX2                !
 ! A87   A(28,46,49)           109.4712         estimate D2E/DX2                !
 ! A88   A(47,46,48)           109.4713         estimate D2E/DX2                !
 ! A89   A(47,46,49)           109.4712         estimate D2E/DX2                !
 ! A90   A(48,46,49)           109.4712         estimate D2E/DX2                !
 ! A91   A(46,49,50)           119.9972         estimate D2E/DX2                !
 ! A92   A(46,49,51)           120.0043         estimate D2E/DX2                !
 ! A93   A(50,49,51)           119.9985         estimate D2E/DX2                !
 ! A94   A(49,50,52)           120.0086         estimate D2E/DX2                !
 ! A95   A(49,50,53)           119.9808         estimate D2E/DX2                !
 ! A96   A(52,50,53)           120.0106         estimate D2E/DX2                !
 ! A97   A(49,51,54)           120.0            estimate D2E/DX2                !
 ! A98   A(49,51,55)           120.008          estimate D2E/DX2                !
 ! A99   A(54,51,55)           119.992          estimate D2E/DX2                !
 ! A100  A(50,52,56)           119.9942         estimate D2E/DX2                !
 ! A101  A(50,52,57)           120.0128         estimate D2E/DX2                !
 ! A102  A(56,52,57)           119.993          estimate D2E/DX2                !
 ! A103  A(51,54,56)           120.0047         estimate D2E/DX2                !
 ! A104  A(51,54,58)           119.984          estimate D2E/DX2                !
 ! A105  A(56,54,58)           120.0113         estimate D2E/DX2                !
 ! A106  A(52,56,54)           119.994          estimate D2E/DX2                !
 ! A107  A(52,56,59)           119.9811         estimate D2E/DX2                !
 ! A108  A(54,56,59)           120.0249         estimate D2E/DX2                !
 ! A109  A(32,60,61)           119.9972         estimate D2E/DX2                !
 ! A110  A(32,60,62)           120.0043         estimate D2E/DX2                !
 ! A111  A(61,60,62)           119.9985         estimate D2E/DX2                !
 ! A112  A(60,61,63)           120.0086         estimate D2E/DX2                !
 ! A113  A(60,61,64)           119.9808         estimate D2E/DX2                !
 ! A114  A(63,61,64)           120.0105         estimate D2E/DX2                !
 ! A115  A(60,62,65)           120.0            estimate D2E/DX2                !
 ! A116  A(60,62,66)           120.008          estimate D2E/DX2                !
 ! A117  A(65,62,66)           119.992          estimate D2E/DX2                !
 ! A118  A(61,63,67)           119.9942         estimate D2E/DX2                !
 ! A119  A(61,63,68)           120.0128         estimate D2E/DX2                !
 ! A120  A(67,63,68)           119.993          estimate D2E/DX2                !
 ! A121  A(62,65,67)           120.0047         estimate D2E/DX2                !
 ! A122  A(62,65,69)           119.984          estimate D2E/DX2                !
 ! A123  A(67,65,69)           120.0113         estimate D2E/DX2                !
 ! A124  A(63,67,65)           119.994          estimate D2E/DX2                !
 ! A125  A(63,67,70)           119.9811         estimate D2E/DX2                !
 ! A126  A(65,67,70)           120.0249         estimate D2E/DX2                !
 ! D1    D(6,1,2,3)              0.0323         estimate D2E/DX2                !
 ! D2    D(6,1,2,8)            179.9532         estimate D2E/DX2                !
 ! D3    D(7,1,2,3)           -179.9729         estimate D2E/DX2                !
 ! D4    D(7,1,2,8)             -0.052          estimate D2E/DX2                !
 ! D5    D(2,1,6,5)              0.0149         estimate D2E/DX2                !
 ! D6    D(2,1,6,10)           179.9892         estimate D2E/DX2                !
 ! D7    D(7,1,6,5)           -179.9798         estimate D2E/DX2                !
 ! D8    D(7,1,6,10)            -0.0056         estimate D2E/DX2                !
 ! D9    D(1,2,3,4)             -0.0568         estimate D2E/DX2                !
 ! D10   D(1,2,3,11)           179.9619         estimate D2E/DX2                !
 ! D11   D(8,2,3,4)           -179.9777         estimate D2E/DX2                !
 ! D12   D(8,2,3,11)             0.041          estimate D2E/DX2                !
 ! D13   D(2,3,4,5)              0.0341         estimate D2E/DX2                !
 ! D14   D(2,3,4,27)          -179.9964         estimate D2E/DX2                !
 ! D15   D(11,3,4,5)          -179.9846         estimate D2E/DX2                !
 ! D16   D(11,3,4,27)           -0.0151         estimate D2E/DX2                !
 ! D17   D(2,3,11,12)           90.7227         estimate D2E/DX2                !
 ! D18   D(2,3,11,13)         -149.2773         estimate D2E/DX2                !
 ! D19   D(2,3,11,14)          -29.2773         estimate D2E/DX2                !
 ! D20   D(4,3,11,12)          -89.2586         estimate D2E/DX2                !
 ! D21   D(4,3,11,13)           30.7414         estimate D2E/DX2                !
 ! D22   D(4,3,11,14)          150.7414         estimate D2E/DX2                !
 ! D23   D(3,4,5,6)              0.0131         estimate D2E/DX2                !
 ! D24   D(3,4,5,9)           -179.9995         estimate D2E/DX2                !
 ! D25   D(27,4,5,6)          -179.9563         estimate D2E/DX2                !
 ! D26   D(27,4,5,9)             0.0311         estimate D2E/DX2                !
 ! D27   D(3,4,27,29)          137.1425         estimate D2E/DX2                !
 ! D28   D(3,4,27,32)         -102.8574         estimate D2E/DX2                !
 ! D29   D(5,4,27,29)          -42.888          estimate D2E/DX2                !
 ! D30   D(5,4,27,32)           77.112          estimate D2E/DX2                !
 ! D31   D(4,5,6,1)             -0.0376         estimate D2E/DX2                !
 ! D32   D(4,5,6,10)           179.9881         estimate D2E/DX2                !
 ! D33   D(9,5,6,1)            179.975          estimate D2E/DX2                !
 ! D34   D(9,5,6,10)             0.0007         estimate D2E/DX2                !
 ! D35   D(3,11,14,15)        -167.7506         estimate D2E/DX2                !
 ! D36   D(3,11,14,16)         -47.7506         estimate D2E/DX2                !
 ! D37   D(3,11,14,17)          72.2493         estimate D2E/DX2                !
 ! D38   D(12,11,14,15)         72.2494         estimate D2E/DX2                !
 ! D39   D(12,11,14,16)       -167.7506         estimate D2E/DX2                !
 ! D40   D(12,11,14,17)        -47.7506         estimate D2E/DX2                !
 ! D41   D(13,11,14,15)        -47.7507         estimate D2E/DX2                !
 ! D42   D(13,11,14,16)         72.2493         estimate D2E/DX2                !
 ! D43   D(13,11,14,17)       -167.7507         estimate D2E/DX2                !
 ! D44   D(11,14,17,18)       -136.2272         estimate D2E/DX2                !
 ! D45   D(11,14,17,19)         43.7675         estimate D2E/DX2                !
 ! D46   D(15,14,17,18)        103.7728         estimate D2E/DX2                !
 ! D47   D(15,14,17,19)        -76.2324         estimate D2E/DX2                !
 ! D48   D(16,14,17,18)        -16.2272         estimate D2E/DX2                !
 ! D49   D(16,14,17,19)        163.7675         estimate D2E/DX2                !
 ! D50   D(14,17,18,20)       -179.9729         estimate D2E/DX2                !
 ! D51   D(14,17,18,21)         -0.052          estimate D2E/DX2                !
 ! D52   D(19,17,18,20)          0.0323         estimate D2E/DX2                !
 ! D53   D(19,17,18,21)        179.9532         estimate D2E/DX2                !
 ! D54   D(14,17,19,22)       -179.9798         estimate D2E/DX2                !
 ! D55   D(14,17,19,28)         -0.0056         estimate D2E/DX2                !
 ! D56   D(18,17,19,22)          0.0149         estimate D2E/DX2                !
 ! D57   D(18,17,19,28)        179.9892         estimate D2E/DX2                !
 ! D58   D(17,18,20,23)         -0.0568         estimate D2E/DX2                !
 ! D59   D(17,18,20,24)        179.9619         estimate D2E/DX2                !
 ! D60   D(21,18,20,23)       -179.9777         estimate D2E/DX2                !
 ! D61   D(21,18,20,24)          0.041          estimate D2E/DX2                !
 ! D62   D(17,19,22,23)         -0.0376         estimate D2E/DX2                !
 ! D63   D(17,19,22,25)        179.975          estimate D2E/DX2                !
 ! D64   D(28,19,22,23)        179.9881         estimate D2E/DX2                !
 ! D65   D(28,19,22,25)          0.0007         estimate D2E/DX2                !
 ! D66   D(17,19,28,39)       -151.7688         estimate D2E/DX2                !
 ! D67   D(17,19,28,46)         88.2311         estimate D2E/DX2                !
 ! D68   D(22,19,28,39)         28.2054         estimate D2E/DX2                !
 ! D69   D(22,19,28,46)        -91.7946         estimate D2E/DX2                !
 ! D70   D(18,20,23,22)          0.0341         estimate D2E/DX2                !
 ! D71   D(18,20,23,26)       -179.9964         estimate D2E/DX2                !
 ! D72   D(24,20,23,22)       -179.9846         estimate D2E/DX2                !
 ! D73   D(24,20,23,26)         -0.0151         estimate D2E/DX2                !
 ! D74   D(19,22,23,20)          0.0131         estimate D2E/DX2                !
 ! D75   D(19,22,23,26)       -179.9563         estimate D2E/DX2                !
 ! D76   D(25,22,23,20)       -179.9995         estimate D2E/DX2                !
 ! D77   D(25,22,23,26)          0.031          estimate D2E/DX2                !
 ! D78   D(4,27,29,30)          78.1037         estimate D2E/DX2                !
 ! D79   D(4,27,29,31)        -161.8963         estimate D2E/DX2                !
 ! D80   D(4,27,29,35)         -41.8963         estimate D2E/DX2                !
 ! D81   D(32,27,29,30)        -41.8963         estimate D2E/DX2                !
 ! D82   D(32,27,29,31)         78.1037         estimate D2E/DX2                !
 ! D83   D(32,27,29,35)       -161.8963         estimate D2E/DX2                !
 ! D84   D(4,27,32,33)         163.4078         estimate D2E/DX2                !
 ! D85   D(4,27,32,34)         -76.5922         estimate D2E/DX2                !
 ! D86   D(4,27,32,60)          43.4078         estimate D2E/DX2                !
 ! D87   D(29,27,32,33)        -76.5923         estimate D2E/DX2                !
 ! D88   D(29,27,32,34)         43.4078         estimate D2E/DX2                !
 ! D89   D(29,27,32,60)        163.4078         estimate D2E/DX2                !
 ! D90   D(19,28,39,40)        -75.4127         estimate D2E/DX2                !
 ! D91   D(19,28,39,41)         44.5873         estimate D2E/DX2                !
 ! D92   D(19,28,39,42)        164.5873         estimate D2E/DX2                !
 ! D93   D(46,28,39,40)         44.5873         estimate D2E/DX2                !
 ! D94   D(46,28,39,41)        164.5873         estimate D2E/DX2                !
 ! D95   D(46,28,39,42)        -75.4127         estimate D2E/DX2                !
 ! D96   D(19,28,46,47)         87.5189         estimate D2E/DX2                !
 ! D97   D(19,28,46,48)       -152.4811         estimate D2E/DX2                !
 ! D98   D(19,28,46,49)        -32.4811         estimate D2E/DX2                !
 ! D99   D(39,28,46,47)        -32.4811         estimate D2E/DX2                !
 ! D100  D(39,28,46,48)         87.5189         estimate D2E/DX2                !
 ! D101  D(39,28,46,49)       -152.4811         estimate D2E/DX2                !
 ! D102  D(27,29,35,36)        -33.4505         estimate D2E/DX2                !
 ! D103  D(27,29,35,37)         86.5495         estimate D2E/DX2                !
 ! D104  D(27,29,35,38)       -153.4505         estimate D2E/DX2                !
 ! D105  D(30,29,35,36)       -153.4505         estimate D2E/DX2                !
 ! D106  D(30,29,35,37)        -33.4505         estimate D2E/DX2                !
 ! D107  D(30,29,35,38)         86.5495         estimate D2E/DX2                !
 ! D108  D(31,29,35,36)         86.5495         estimate D2E/DX2                !
 ! D109  D(31,29,35,37)       -153.4505         estimate D2E/DX2                !
 ! D110  D(31,29,35,38)        -33.4505         estimate D2E/DX2                !
 ! D111  D(27,32,60,61)        -86.5276         estimate D2E/DX2                !
 ! D112  D(27,32,60,62)         93.4672         estimate D2E/DX2                !
 ! D113  D(33,32,60,61)        153.4725         estimate D2E/DX2                !
 ! D114  D(33,32,60,62)        -26.5328         estimate D2E/DX2                !
 ! D115  D(34,32,60,61)         33.4724         estimate D2E/DX2                !
 ! D116  D(34,32,60,62)       -146.5328         estimate D2E/DX2                !
 ! D117  D(28,39,42,43)        125.1647         estimate D2E/DX2                !
 ! D118  D(28,39,42,44)       -114.8353         estimate D2E/DX2                !
 ! D119  D(28,39,42,45)          5.1647         estimate D2E/DX2                !
 ! D120  D(40,39,42,43)          5.1647         estimate D2E/DX2                !
 ! D121  D(40,39,42,44)        125.1647         estimate D2E/DX2                !
 ! D122  D(40,39,42,45)       -114.8353         estimate D2E/DX2                !
 ! D123  D(41,39,42,43)       -114.8353         estimate D2E/DX2                !
 ! D124  D(41,39,42,44)          5.1647         estimate D2E/DX2                !
 ! D125  D(41,39,42,45)        125.1647         estimate D2E/DX2                !
 ! D126  D(28,46,49,50)         85.8699         estimate D2E/DX2                !
 ! D127  D(28,46,49,51)        -94.1354         estimate D2E/DX2                !
 ! D128  D(47,46,49,50)        -34.1301         estimate D2E/DX2                !
 ! D129  D(47,46,49,51)        145.8646         estimate D2E/DX2                !
 ! D130  D(48,46,49,50)       -154.1302         estimate D2E/DX2                !
 ! D131  D(48,46,49,51)         25.8646         estimate D2E/DX2                !
 ! D132  D(46,49,50,52)       -179.9729         estimate D2E/DX2                !
 ! D133  D(46,49,50,53)         -0.052          estimate D2E/DX2                !
 ! D134  D(51,49,50,52)          0.0323         estimate D2E/DX2                !
 ! D135  D(51,49,50,53)        179.9532         estimate D2E/DX2                !
 ! D136  D(46,49,51,54)       -179.9798         estimate D2E/DX2                !
 ! D137  D(46,49,51,55)         -0.0055         estimate D2E/DX2                !
 ! D138  D(50,49,51,54)          0.0149         estimate D2E/DX2                !
 ! D139  D(50,49,51,55)        179.9892         estimate D2E/DX2                !
 ! D140  D(49,50,52,56)         -0.0568         estimate D2E/DX2                !
 ! D141  D(49,50,52,57)        179.9619         estimate D2E/DX2                !
 ! D142  D(53,50,52,56)       -179.9777         estimate D2E/DX2                !
 ! D143  D(53,50,52,57)          0.041          estimate D2E/DX2                !
 ! D144  D(49,51,54,56)         -0.0376         estimate D2E/DX2                !
 ! D145  D(49,51,54,58)        179.975          estimate D2E/DX2                !
 ! D146  D(55,51,54,56)        179.9881         estimate D2E/DX2                !
 ! D147  D(55,51,54,58)          0.0007         estimate D2E/DX2                !
 ! D148  D(50,52,56,54)          0.0341         estimate D2E/DX2                !
 ! D149  D(50,52,56,59)       -179.9964         estimate D2E/DX2                !
 ! D150  D(57,52,56,54)       -179.9846         estimate D2E/DX2                !
 ! D151  D(57,52,56,59)         -0.0151         estimate D2E/DX2                !
 ! D152  D(51,54,56,52)          0.0131         estimate D2E/DX2                !
 ! D153  D(51,54,56,59)       -179.9563         estimate D2E/DX2                !
 ! D154  D(58,54,56,52)       -179.9995         estimate D2E/DX2                !
 ! D155  D(58,54,56,59)          0.0311         estimate D2E/DX2                !
 ! D156  D(32,60,61,63)       -179.9729         estimate D2E/DX2                !
 ! D157  D(32,60,61,64)         -0.052          estimate D2E/DX2                !
 ! D158  D(62,60,61,63)          0.0323         estimate D2E/DX2                !
 ! D159  D(62,60,61,64)        179.9532         estimate D2E/DX2                !
 ! D160  D(32,60,62,65)       -179.9798         estimate D2E/DX2                !
 ! D161  D(32,60,62,66)         -0.0056         estimate D2E/DX2                !
 ! D162  D(61,60,62,65)          0.0149         estimate D2E/DX2                !
 ! D163  D(61,60,62,66)        179.9892         estimate D2E/DX2                !
 ! D164  D(60,61,63,67)         -0.0568         estimate D2E/DX2                !
 ! D165  D(60,61,63,68)        179.9619         estimate D2E/DX2                !
 ! D166  D(64,61,63,67)       -179.9777         estimate D2E/DX2                !
 ! D167  D(64,61,63,68)          0.041          estimate D2E/DX2                !
 ! D168  D(60,62,65,67)         -0.0376         estimate D2E/DX2                !
 ! D169  D(60,62,65,69)        179.975          estimate D2E/DX2                !
 ! D170  D(66,62,65,67)        179.9881         estimate D2E/DX2                !
 ! D171  D(66,62,65,69)          0.0007         estimate D2E/DX2                !
 ! D172  D(61,63,67,65)          0.0341         estimate D2E/DX2                !
 ! D173  D(61,63,67,70)       -179.9964         estimate D2E/DX2                !
 ! D174  D(68,63,67,65)       -179.9846         estimate D2E/DX2                !
 ! D175  D(68,63,67,70)         -0.0151         estimate D2E/DX2                !
 ! D176  D(62,65,67,63)          0.0131         estimate D2E/DX2                !
 ! D177  D(62,65,67,70)       -179.9563         estimate D2E/DX2                !
 ! D178  D(69,65,67,63)       -179.9995         estimate D2E/DX2                !
 ! D179  D(69,65,67,70)          0.0311         estimate D2E/DX2                !
 --------------------------------------------------------------------------------
 Trust Radius=3.00D-01 FncErr=1.00D-07 GrdErr=1.00D-06 EigMax=2.50D+02 EigMin=1.00D-04
 Number of steps in this run=    388 maximum allowed number of steps=    420.
 GradGradGradGradGradGradGradGradGradGradGradGradGradGradGradGradGradGrad

 Stoichiometry    C32H36N2
 Framework group  C1[X(C32H36N2)]
 Deg. of freedom   204
 Full point group                 C1      NOp   1
 Largest Abelian subgroup         C1      NOp   1
 Largest concise Abelian subgroup C1      NOp   1
                         Standard orientation:                         
 ---------------------------------------------------------------------
 Center     Atomic      Atomic             Coordinates (Angstroms)
 Number     Number       Type             X           Y           Z
 ---------------------------------------------------------------------
      1          6           0       -1.874032   -0.946943    2.819733
      2          6           0       -0.961789   -0.556172    1.839130
      3          6           0       -1.363293   -0.473836    0.506000
      4          6           0       -2.677286   -0.783496    0.152801
      5          6           0       -3.589130   -1.174623    1.133157
      6          6           0       -3.187604   -1.255983    2.466787
      7          1           0       -1.557396   -1.011364    3.870797
      8          1           0        0.073530   -0.311855    2.117818
      9          1           0       -4.624779   -1.418745    0.855113
     10          1           0       -3.906676   -1.564160    3.239503
     11          6           0       -0.356657   -0.041660   -0.576362
     12          1           0        0.131597   -0.906305   -0.974983
     13          1           0       -0.874238    0.469270   -1.361193
     14          6           0        0.692191    0.899601    0.044563
     15          1           0        1.258005    1.366506   -0.734381
     16          1           0        0.198310    1.650155    0.625640
     17          6           0        1.637507    0.088630    0.950269
     18          6           0        1.999647    0.585064    2.202817
     19          6           0        2.131586   -1.142217    0.518469
     20          6           0        2.856214   -0.148936    3.023036
     21          1           0        1.610567    1.555830    2.542630
     22          6           0        2.987639   -1.877024    1.339226
     23          6           0        3.350113   -1.380551    2.591290
     24          1           0        3.142200    0.242586    4.010061
     25          1           0        3.376716   -2.847653    0.998677
     26          1           0        4.025425   -1.959133    3.238201
     27          7           0       -3.100136   -0.696694   -1.252391
     28          7           0        1.749968   -1.665592   -0.801132
     29          6           0       -3.929815   -1.863023   -1.587370
     30          1           0       -4.917360   -1.721108   -1.200698
     31          1           0       -3.975684   -1.974569   -2.650550
     32          6           0       -3.879390    0.533268   -1.454519
     33          1           0       -3.940332    0.748992   -2.500774
     34          1           0       -4.864964    0.399983   -1.059831
     35          6           0       -3.311658   -3.128598   -0.964632
     36          1           0       -2.245471   -3.038589   -0.958034
     37          1           0       -3.666219   -3.242182    0.038506
     38          1           0       -3.593785   -3.984351   -1.541686
     39          6           0        1.789050   -3.134849   -0.775550
     40          1           0        2.806391   -3.465136   -0.804355
     41          1           0        1.324516   -3.488440    0.121156
     42          6           0        1.034367   -3.689799   -1.997877
     43          1           0        1.676050   -4.349237   -2.544031
     44          1           0        0.168504   -4.225738   -1.669319
     45          1           0        0.734189   -2.880003   -2.629560
     46          6           0        2.689736   -1.168017   -1.816098
     47          1           0        3.527255   -1.830671   -1.882056
     48          1           0        2.197431   -1.119877   -2.764896
     49          6           0        3.177402    0.237692   -1.418904
     50          6           0        4.266218    0.380985   -0.558427
     51          6           0        2.530682    1.367626   -1.919455
     52          6           0        4.707723    1.653958   -0.198101
     53          1           0        4.775382   -0.510036   -0.163364
     54          6           0        2.972815    2.641065   -1.559898
     55          1           0        1.672622    1.254872   -2.597796
     56          6           0        4.061065    2.784398   -0.699257
     57          1           0        5.565539    1.766978    0.480628
     58          1           0        2.462967    3.531790   -1.955042
     59          1           0        4.409392    3.787989   -0.415058
     60          6           0       -3.189549    1.703149   -0.728504
     61          6           0       -3.462575    1.946839    0.617803
     62          6           0       -2.291720    2.519054   -1.416799
     63          6           0       -2.838379    3.006630    1.275408
     64          1           0       -4.171038    1.303883    1.159956
     65          6           0       -1.666501    3.578607   -0.758878
     66          1           0       -2.076282    2.327022   -2.477855
     67          6           0       -1.939772    3.822588    0.586980
     68          1           0       -3.054007    3.199154    2.336415
     69          1           0       -0.958335    4.221494   -1.301715
     70          1           0       -1.447693    4.658100    1.105703
 ---------------------------------------------------------------------
 Rotational constants (GHZ):           0.1839890           0.1101386           0.0955822
 Standard basis: 6-31G(d) (6D, 7F)
 There are   582 symmetry adapted cartesian basis functions of A   symmetry.
 There are   582 symmetry adapted basis functions of A   symmetry.
   582 basis functions,  1096 primitive gaussians,   582 cartesian basis functions
   121 alpha electrons      121 beta electrons
       nuclear repulsion energy      3733.1871174534 Hartrees.
 NAtoms=   70 NActive=   70 NUniq=   70 SFac= 1.00D+00 NAtFMM=   60 NAOKFM=T Big=T
 Integral buffers will be    131072 words long.
 Raffenetti 2 integral format.
 Two-electron integral symmetry is turned on.
 ------------------------------------------------------------------------------
 Polarizable Continuum Model (PCM)
 =================================
 Model                : PCM.
 Atomic radii         : SMD-Coulomb.
 Polarization charges : Total charges.
 Charge compensation  : None.
 Solution method      : On-the-fly selection.
 Cavity type          : VdW (van der Waals Surface) (Alpha=1.000).
 Cavity algorithm     : GePol (No added spheres)
                        Default sphere list used, NSphG=   70.
                        Lebedev-Laikov grids with approx.  5.0 points / Ang**2.
                        Smoothing algorithm: York/Karplus (Gamma=1.0000).
                        Polarization charges: spherical gaussians, with
                                              point-specific exponents (IZeta= 3).
                        Self-potential: point-specific (ISelfS= 7).
                        Self-field    : sphere-specific E.n sum rule (ISelfD= 2).
 1st derivatives      : Analytical E(r).r(x)/FMM algorithm (CHGder, D1EAlg=3).
                        Cavity 1st derivative terms included.
 Solvent              : Toluene, Eps=   2.374100 Eps(inf)=   2.238315
 ------------------------------------------------------------------------------
 ------------------------------------------------------------------------------
 Atomic radii for non-electrostatic terms: SMD-CDS.
 ------------------------------------------------------------------------------
 Nuclear repulsion after PCM non-electrostatic terms =     3733.1684173651 Hartrees.
 One-electron integrals computed using PRISM.
 NBasis=   582 RedAO= T EigKep=  3.35D-04  NBF=   582
 NBsUse=   582 1.00D-06 EigRej= -1.00D+00 NBFU=   582
 ExpMin= 1.61D-01 ExpMax= 4.17D+03 ExpMxC= 6.27D+02 IAcc=3 IRadAn=         5 AccDes= 0.00D+00
 Harris functional with IExCor=  402 and IRadAn=       5 diagonalized for initial guess.
 HarFok:  IExCor=  402 AccDes= 0.00D+00 IRadAn=         5 IDoV= 1 UseB2=F ITyADJ=14
 ICtDFT=  3500011 ScaDFX=  1.000000  1.000000  1.000000  1.000000
 FoFCou: FMM=F IPFlag=           0 FMFlag=      100000 FMFlg1=        2001
         NFxFlg=           0 DoJE=T BraDBF=F KetDBF=T FulRan=T
         wScrn=  0.000000 ICntrl=       500 IOpCl=  0 I1Cent=   200000004 NGrid=           0
         NMat0=    1 NMatS0=      1 NMatT0=    0 NMatD0=    1 NMtDS0=    0 NMtDT0=    0
 Petite list used in FoFCou.
 Requested convergence on RMS density matrix=1.00D-08 within 128 cycles.
 Requested convergence on MAX density matrix=1.00D-06.
 Requested convergence on             energy=1.00D-06.
 No special actions if energy rises.
 Inv3:  Mode=1 IEnd=    62435532.
 Iteration    1 A*A^-1 deviation from unit magnitude is 4.44D-15 for   4562.
 Iteration    1 A*A^-1 deviation from orthogonality  is 2.23D-15 for   4561   4536.
 Iteration    1 A^-1*A deviation from unit magnitude is 4.44D-15 for   4562.
 Iteration    1 A^-1*A deviation from orthogonality  is 1.73D-15 for   4559   4540.
 Error on total polarization charges =  0.04133
 SCF Done:  E(RB3LYP) =  -1350.48418719     A.U. after   13 cycles
            NFock= 13  Conv=0.56D-08     -V/T= 2.0089
 SMD-CDS (non-electrostatic) energy       (kcal/mol) =     -11.73
 (included in total energy above)

 **********************************************************************

            Population analysis using the SCF Density.

 **********************************************************************

 Orbital symmetries:
       Occupied  (A) (A) (A) (A) (A) (A) (A) (A) (A) (A) (A) (A)
                 (A) (A) (A) (A) (A) (A) (A) (A) (A) (A) (A) (A)
                 (A) (A) (A) (A) (A) (A) (A) (A) (A) (A) (A) (A)
                 (A) (A) (A) (A) (A) (A) (A) (A) (A) (A) (A) (A)
                 (A) (A) (A) (A) (A) (A) (A) (A) (A) (A) (A) (A)
                 (A) (A) (A) (A) (A) (A) (A) (A) (A) (A) (A) (A)
                 (A) (A) (A) (A) (A) (A) (A) (A) (A) (A) (A) (A)
                 (A) (A) (A) (A) (A) (A) (A) (A) (A) (A) (A) (A)
                 (A) (A) (A) (A) (A) (A) (A) (A) (A) (A) (A) (A)
                 (A) (A) (A) (A) (A) (A) (A) (A) (A) (A) (A) (A)
                 (A)
       Virtual   (A) (A) (A) (A) (A) (A) (A) (A) (A) (A) (A) (A)
                 (A) (A) (A) (A) (A) (A) (A) (A) (A) (A) (A) (A)
                 (A) (A) (A) (A) (A) (A) (A) (A) (A) (A) (A) (A)
                 (A) (A) (A) (A) (A) (A) (A) (A) (A) (A) (A) (A)
                 (A) (A) (A) (A) (A) (A) (A) (A) (A) (A) (A) (A)
                 (A) (A) (A) (A) (A) (A) (A) (A) (A) (A) (A) (A)
                 (A) (A) (A) (A) (A) (A) (A) (A) (A) (A) (A) (A)
                 (A) (A) (A) (A) (A) (A) (A) (A) (A) (A) (A) (A)
                 (A) (A) (A) (A) (A) (A) (A) (A) (A) (A) (A) (A)
                 (A) (A) (A) (A) (A) (A) (A) (A) (A) (A) (A) (A)
                 (A) (A) (A) (A) (A) (A) (A) (A) (A) (A) (A) (A)
                 (A) (A) (A) (A) (A) (A) (A) (A) (A) (A) (A) (A)
                 (A) (A) (A) (A) (A) (A) (A) (A) (A) (A) (A) (A)
                 (A) (A) (A) (A) (A) (A) (A) (A) (A) (A) (A) (A)
                 (A) (A) (A) (A) (A) (A) (A) (A) (A) (A) (A) (A)
                 (A) (A) (A) (A) (A) (A) (A) (A) (A) (A) (A) (A)
                 (A) (A) (A) (A) (A) (A) (A) (A) (A) (A) (A) (A)
                 (A) (A) (A) (A) (A) (A) (A) (A) (A) (A) (A) (A)
                 (A) (A) (A) (A) (A) (A) (A) (A) (A) (A) (A) (A)
                 (A) (A) (A) (A) (A) (A) (A) (A) (A) (A) (A) (A)
                 (A) (A) (A) (A) (A) (A) (A) (A) (A) (A) (A) (A)
                 (A) (A) (A) (A) (A) (A) (A) (A) (A) (A) (A) (A)
                 (A) (A) (A) (A) (A) (A) (A) (A) (A) (A) (A) (A)
                 (A) (A) (A) (A) (A) (A) (A) (A) (A) (A) (A) (A)
                 (A) (A) (A) (A) (A) (A) (A) (A) (A) (A) (A) (A)
                 (A) (A) (A) (A) (A) (A) (A) (A) (A) (A) (A) (A)
                 (A) (A) (A) (A) (A) (A) (A) (A) (A) (A) (A) (A)
                 (A) (A) (A) (A) (A) (A) (A) (A) (A) (A) (A) (A)
                 (A) (A) (A) (A) (A) (A) (A) (A) (A) (A) (A) (A)
                 (A) (A) (A) (A) (A) (A) (A) (A) (A) (A) (A) (A)
                 (A) (A) (A) (A) (A) (A) (A) (A) (A) (A) (A) (A)
                 (A) (A) (A) (A) (A) (A) (A) (A) (A) (A) (A) (A)
                 (A) (A) (A) (A) (A) (A) (A) (A) (A) (A) (A) (A)
                 (A) (A) (A) (A) (A) (A) (A) (A) (A) (A) (A) (A)
                 (A) (A) (A) (A) (A) (A) (A) (A) (A) (A) (A) (A)
                 (A) (A) (A) (A) (A) (A) (A) (A) (A) (A) (A) (A)
                 (A) (A) (A) (A) (A) (A) (A) (A) (A) (A) (A) (A)
                 (A) (A) (A) (A) (A) (A) (A) (A) (A) (A) (A) (A)
                 (A) (A) (A) (A) (A)
 The electronic state is 1-A.
 Alpha  occ. eigenvalues --  -14.32543 -14.31503 -10.20454 -10.20360 -10.19654
 Alpha  occ. eigenvalues --  -10.19426 -10.19156 -10.18991 -10.18764 -10.18474
 Alpha  occ. eigenvalues --  -10.18453 -10.18345 -10.18235 -10.18227 -10.18142
 Alpha  occ. eigenvalues --  -10.18138 -10.18090 -10.18028 -10.17979 -10.17932
 Alpha  occ. eigenvalues --  -10.17904 -10.17896 -10.17847 -10.17621 -10.17620
 Alpha  occ. eigenvalues --  -10.17212 -10.17022 -10.17000 -10.16861 -10.15920
 Alpha  occ. eigenvalues --  -10.15765 -10.15290 -10.14735 -10.13461  -0.93377
 Alpha  occ. eigenvalues --   -0.92089  -0.84959  -0.84272  -0.84233  -0.82802
 Alpha  occ. eigenvalues --   -0.77898  -0.76335  -0.76052  -0.74459  -0.73937
 Alpha  occ. eigenvalues --   -0.73674  -0.73327  -0.72441  -0.71849  -0.71652
 Alpha  occ. eigenvalues --   -0.69003  -0.66367  -0.64872  -0.62340  -0.61493
 Alpha  occ. eigenvalues --   -0.61205  -0.59862  -0.59298  -0.58534  -0.57446
 Alpha  occ. eigenvalues --   -0.57163  -0.56077  -0.55893  -0.54628  -0.51048
 Alpha  occ. eigenvalues --   -0.50170  -0.49644  -0.48856  -0.47961  -0.47010
 Alpha  occ. eigenvalues --   -0.46542  -0.46326  -0.46002  -0.44915  -0.44671
 Alpha  occ. eigenvalues --   -0.44405  -0.44295  -0.43717  -0.43047  -0.42968
 Alpha  occ. eigenvalues --   -0.42290  -0.41522  -0.41280  -0.41117  -0.40937
 Alpha  occ. eigenvalues --   -0.40847  -0.39892  -0.39644  -0.39352  -0.38330
 Alpha  occ. eigenvalues --   -0.37853  -0.37259  -0.36812  -0.36348  -0.35829
 Alpha  occ. eigenvalues --   -0.35480  -0.35233  -0.34998  -0.34755  -0.34550
 Alpha  occ. eigenvalues --   -0.34030  -0.33492  -0.33229  -0.33120  -0.32870
 Alpha  occ. eigenvalues --   -0.32538  -0.32242  -0.31774  -0.31208  -0.30881
 Alpha  occ. eigenvalues --   -0.30457  -0.25670  -0.24598  -0.24113  -0.23791
 Alpha  occ. eigenvalues --   -0.23288  -0.22792  -0.22314  -0.21430  -0.20683
 Alpha  occ. eigenvalues --   -0.19114
 Alpha virt. eigenvalues --   -0.00872   0.00233   0.00294   0.00744   0.01083
 Alpha virt. eigenvalues --    0.01511   0.02169   0.02477   0.08590   0.09206
 Alpha virt. eigenvalues --    0.09439   0.10043   0.10785   0.12021   0.12228
 Alpha virt. eigenvalues --    0.12823   0.13688   0.13900   0.14655   0.14909
 Alpha virt. eigenvalues --    0.14986   0.15442   0.15673   0.16182   0.16278
 Alpha virt. eigenvalues --    0.16522   0.16848   0.17174   0.17843   0.17993
 Alpha virt. eigenvalues --    0.18162   0.18241   0.18529   0.19006   0.19293
 Alpha virt. eigenvalues --    0.19463   0.19973   0.20559   0.20983   0.21353
 Alpha virt. eigenvalues --    0.21623   0.21885   0.22438   0.22510   0.22901
 Alpha virt. eigenvalues --    0.23222   0.23943   0.24597   0.25023   0.25167
 Alpha virt. eigenvalues --    0.25555   0.25675   0.26535   0.27382   0.27494
 Alpha virt. eigenvalues --    0.28215   0.28496   0.29293   0.29918   0.30730
 Alpha virt. eigenvalues --    0.31354   0.31696   0.32089   0.33060   0.33447
 Alpha virt. eigenvalues --    0.33893   0.34113   0.34751   0.34761   0.35268
 Alpha virt. eigenvalues --    0.35702   0.36637   0.37053   0.37372   0.38278
 Alpha virt. eigenvalues --    0.38676   0.40197   0.45625   0.46250   0.47227
 Alpha virt. eigenvalues --    0.48752   0.49393   0.49960   0.50706   0.51141
 Alpha virt. eigenvalues --    0.51292   0.52274   0.52302   0.53124   0.53938
 Alpha virt. eigenvalues --    0.54305   0.54644   0.55100   0.56146   0.56250
 Alpha virt. eigenvalues --    0.56631   0.56818   0.56973   0.57524   0.57616
 Alpha virt. eigenvalues --    0.57938   0.58348   0.58949   0.59272   0.59422
 Alpha virt. eigenvalues --    0.60076   0.60498   0.60791   0.60988   0.61114
 Alpha virt. eigenvalues --    0.61419   0.61877   0.61925   0.62162   0.62371
 Alpha virt. eigenvalues --    0.62487   0.62803   0.63267   0.63611   0.63772
 Alpha virt. eigenvalues --    0.64159   0.64605   0.65132   0.65396   0.65893
 Alpha virt. eigenvalues --    0.66292   0.66517   0.67244   0.68023   0.68344
 Alpha virt. eigenvalues --    0.68827   0.69483   0.69886   0.70479   0.71019
 Alpha virt. eigenvalues --    0.72681   0.72951   0.74225   0.75838   0.76453
 Alpha virt. eigenvalues --    0.76579   0.77388   0.78580   0.78623   0.80007
 Alpha virt. eigenvalues --    0.80314   0.80530   0.80714   0.81794   0.82601
 Alpha virt. eigenvalues --    0.82774   0.83185   0.83501   0.83835   0.84273
 Alpha virt. eigenvalues --    0.84346   0.84568   0.84642   0.84792   0.85558
 Alpha virt. eigenvalues --    0.85787   0.86025   0.86454   0.86852   0.87068
 Alpha virt. eigenvalues --    0.87274   0.87752   0.88370   0.89141   0.89475
 Alpha virt. eigenvalues --    0.90097   0.90391   0.90612   0.90971   0.91503
 Alpha virt. eigenvalues --    0.91833   0.92462   0.92585   0.92808   0.93817
 Alpha virt. eigenvalues --    0.94021   0.94554   0.94815   0.95151   0.95753
 Alpha virt. eigenvalues --    0.96810   0.98403   0.98507   0.99096   0.99313
 Alpha virt. eigenvalues --    0.99589   1.00634   1.00912   1.01167   1.01747
 Alpha virt. eigenvalues --    1.02175   1.02245   1.03860   1.04262   1.04824
 Alpha virt. eigenvalues --    1.05475   1.06607   1.07309   1.07974   1.08607
 Alpha virt. eigenvalues --    1.08948   1.09522   1.10871   1.11566   1.12187
 Alpha virt. eigenvalues --    1.13096   1.14018   1.14934   1.15664   1.16588
 Alpha virt. eigenvalues --    1.17069   1.18290   1.18593   1.19085   1.20129
 Alpha virt. eigenvalues --    1.20732   1.22287   1.22638   1.23488   1.23679
 Alpha virt. eigenvalues --    1.23981   1.24709   1.26512   1.27646   1.27917
 Alpha virt. eigenvalues --    1.29714   1.31248   1.33529   1.33986   1.35212
 Alpha virt. eigenvalues --    1.36662   1.38092   1.38817   1.39253   1.40162
 Alpha virt. eigenvalues --    1.40515   1.41483   1.42097   1.43174   1.44877
 Alpha virt. eigenvalues --    1.45742   1.46166   1.46828   1.47423   1.47871
 Alpha virt. eigenvalues --    1.48264   1.48699   1.49045   1.50029   1.50395
 Alpha virt. eigenvalues --    1.50451   1.50587   1.51414   1.52344   1.52696
 Alpha virt. eigenvalues --    1.52720   1.53723   1.54270   1.54571   1.55990
 Alpha virt. eigenvalues --    1.56251   1.56713   1.58437   1.60051   1.62707
 Alpha virt. eigenvalues --    1.63685   1.65055   1.65945   1.66531   1.69438
 Alpha virt. eigenvalues --    1.70493   1.73844   1.75764   1.77542   1.80209
 Alpha virt. eigenvalues --    1.80892   1.81611   1.81781   1.83070   1.83836
 Alpha virt. eigenvalues --    1.84136   1.84741   1.85028   1.86470   1.86834
 Alpha virt. eigenvalues --    1.87289   1.88177   1.88973   1.89547   1.90505
 Alpha virt. eigenvalues --    1.90716   1.91020   1.91264   1.91845   1.92582
 Alpha virt. eigenvalues --    1.93227   1.93653   1.93912   1.94132   1.95296
 Alpha virt. eigenvalues --    1.95867   1.96869   1.97666   1.98494   1.98849
 Alpha virt. eigenvalues --    1.99949   2.00708   2.02649   2.03048   2.03467
 Alpha virt. eigenvalues --    2.04571   2.05436   2.05658   2.05997   2.07559
 Alpha virt. eigenvalues --    2.07778   2.08311   2.08984   2.09187   2.10342
 Alpha virt. eigenvalues --    2.11818   2.13309   2.13521   2.13867   2.15229
 Alpha virt. eigenvalues --    2.16119   2.16626   2.17022   2.17956   2.18517
 Alpha virt. eigenvalues --    2.19061   2.19221   2.20082   2.20907   2.21064
 Alpha virt. eigenvalues --    2.21407   2.22228   2.23067   2.24171   2.24956
 Alpha virt. eigenvalues --    2.26554   2.27743   2.28059   2.29447   2.30240
 Alpha virt. eigenvalues --    2.30775   2.31698   2.32004   2.32488   2.32624
 Alpha virt. eigenvalues --    2.32856   2.33158   2.34112   2.35074   2.35890
 Alpha virt. eigenvalues --    2.36305   2.37718   2.38557   2.40327   2.41063
 Alpha virt. eigenvalues --    2.41569   2.41938   2.42457   2.43844   2.44246
 Alpha virt. eigenvalues --    2.44933   2.46093   2.47124   2.50420   2.52067
 Alpha virt. eigenvalues --    2.54885   2.55699   2.56695   2.57304   2.58954
 Alpha virt. eigenvalues --    2.60255   2.60576   2.61354   2.61967   2.63328
 Alpha virt. eigenvalues --    2.64547   2.65596   2.66720   2.67729   2.67995
 Alpha virt. eigenvalues --    2.68314   2.68662   2.69603   2.71649   2.72236
 Alpha virt. eigenvalues --    2.73297   2.74361   2.75140   2.75729   2.75818
 Alpha virt. eigenvalues --    2.76670   2.76949   2.77165   2.77571   2.79044
 Alpha virt. eigenvalues --    2.79476   2.81305   2.82488   2.83810   2.84982
 Alpha virt. eigenvalues --    2.85732   2.87002   2.88380   2.89212   2.93160
 Alpha virt. eigenvalues --    2.98199   2.99536   3.06088   3.06695   3.07644
 Alpha virt. eigenvalues --    3.09326   3.15793   3.18434   3.42266   3.42808
 Alpha virt. eigenvalues --    3.44029   3.44847   4.10995   4.11808   4.13141
 Alpha virt. eigenvalues --    4.13952   4.15491   4.18697   4.18824   4.19394
 Alpha virt. eigenvalues --    4.20612   4.22599   4.24421   4.25785   4.28379
 Alpha virt. eigenvalues --    4.31173   4.32128   4.34241   4.37069   4.39427
 Alpha virt. eigenvalues --    4.40757   4.41419   4.42327   4.43137   4.46220
 Alpha virt. eigenvalues --    4.50214   4.51027   4.53633   4.62146   4.63626
 Alpha virt. eigenvalues --    4.66802   4.71436   4.73848   4.77817   4.79737
 Alpha virt. eigenvalues --    4.82242
          Condensed to atoms (all electrons):
 Mulliken charges:
               1
     1  C   -0.167236
     2  C   -0.181549
     3  C    0.144969
     4  C    0.179720
     5  C   -0.183952
     6  C   -0.163274
     7  H    0.126302
     8  H    0.153224
     9  H    0.135651
    10  H    0.126090
    11  C   -0.359215
    12  H    0.231801
    13  H    0.134289
    14  C   -0.343268
    15  H    0.177548
    16  H    0.149555
    17  C    0.084773
    18  C   -0.206073
    19  C    0.250451
    20  C   -0.130827
    21  H    0.142896
    22  C   -0.177005
    23  C   -0.166113
    24  H    0.133921
    25  H    0.142091
    26  H    0.135560
    27  N   -0.478260
    28  N   -0.509477
    29  C   -0.120750
    30  H    0.125033
    31  H    0.147898
    32  C   -0.187133
    33  H    0.152096
    34  H    0.132292
    35  C   -0.486826
    36  H    0.175940
    37  H    0.166693
    38  H    0.140929
    39  C   -0.132995
    40  H    0.136229
    41  H    0.169463
    42  C   -0.480690
    43  H    0.149678
    44  H    0.165072
    45  H    0.170878
    46  C   -0.173286
    47  H    0.144337
    48  H    0.158819
    49  C    0.133792
    50  C   -0.151313
    51  C   -0.280290
    52  C   -0.147717
    53  H    0.143297
    54  C   -0.116074
    55  H    0.164462
    56  C   -0.138251
    57  H    0.139061
    58  H    0.139246
    59  H    0.139115
    60  C    0.127822
    61  C   -0.158954
    62  C   -0.185635
    63  C   -0.148337
    64  H    0.145161
    65  C   -0.143989
    66  H    0.137157
    67  C   -0.143710
    68  H    0.138275
    69  H    0.134725
    70  H    0.135887
 Sum of Mulliken charges =  -0.00000
 Mulliken charges with hydrogens summed into heavy atoms:
               1
     1  C   -0.040934
     2  C   -0.028324
     3  C    0.144969
     4  C    0.179720
     5  C   -0.048301
     6  C   -0.037184
    11  C    0.006875
    14  C   -0.016166
    17  C    0.084773
    18  C   -0.063177
    19  C    0.250451
    20  C    0.003094
    22  C   -0.034914
    23  C   -0.030553
    27  N   -0.478260
    28  N   -0.509477
    29  C    0.152181
    32  C    0.097255
    35  C   -0.003263
    39  C    0.172697
    42  C    0.004939
    46  C    0.129871
    49  C    0.133792
    50  C   -0.008017
    51  C   -0.115828
    52  C   -0.008656
    54  C    0.023172
    56  C    0.000864
    60  C    0.127822
    61  C   -0.013793
    62  C   -0.048478
    63  C   -0.010062
    65  C   -0.009264
    67  C   -0.007824
 Electronic spatial extent (au):  <R**2>=          12961.9894
 Charge=             -0.0000 electrons
 Dipole moment (field-independent basis, Debye):
    X=              1.2508    Y=             -0.7254    Z=             -0.5677  Tot=              1.5534
 Quadrupole moment (field-independent basis, Debye-Ang):
   XX=           -192.3356   YY=           -192.0816   ZZ=           -193.8457
   XY=              0.2292   XZ=              3.9874   YZ=              3.0861
 Traceless Quadrupole moment (field-independent basis, Debye-Ang):
   XX=              0.4187   YY=              0.6727   ZZ=             -1.0914
   XY=              0.2292   XZ=              3.9874   YZ=              3.0861
 Octapole moment (field-independent basis, Debye-Ang**2):
  XXX=            -23.4774  YYY=             -1.0675  ZZZ=              7.3238  XYY=             44.3760
  XXY=            -50.1748  XXZ=             26.4543  XZZ=             -8.3814  YZZ=              4.7078
  YYZ=             -4.9824  XYZ=              2.9260
 Hexadecapole moment (field-independent basis, Debye-Ang**3):
 XXXX=          -9653.3521 YYYY=          -4865.4464 ZZZZ=          -2944.0313 XXXY=             79.7070
 XXXZ=            149.5134 YYYX=             78.6259 YYYZ=             51.5888 ZZZX=             73.9638
 ZZZY=             19.9136 XXYY=          -2454.8658 XXZZ=          -2110.4555 YYZZ=          -1314.6950
 XXYZ=             51.8091 YYXZ=             -4.0389 ZZXY=            -30.5376
 N-N= 3.733168417365D+03 E-N=-1.059629840382D+04  KE= 1.338540217026D+03
 D1PCM: PCM CHGder 1st derivatives, ID1Alg=3 FixD1E=F DoIter=F DoCFld=F I1PDM=0.
 Calling FoFJK, ICntrl=      2127 FMM=T ISym2X=0 I1Cent= 0 IOpClX= 0 NMat=1 NMatS=1 NMatT=0.
 ***** Axes restored to original set *****
 -------------------------------------------------------------------
 Center     Atomic                   Forces (Hartrees/Bohr)
 Number     Number              X              Y              Z
 -------------------------------------------------------------------
      1        6          -0.004412718   -0.006877339    0.000372714
      2        6          -0.013506008   -0.006284741    0.000326542
      3        6           0.026723244    0.004381037   -0.003398036
      4        6          -0.000253346    0.009157052   -0.003069054
      5        6          -0.009016202   -0.001530185    0.002726384
      6        6          -0.012193047    0.000841988   -0.000264257
      7        1           0.003769396    0.006674901   -0.000099041
      8        1          -0.017668075    0.017782691   -0.000468070
      9        1           0.003021609   -0.008898878    0.001651424
     10        1           0.007522214    0.000334221   -0.000233748
     11        6          -0.033528309   -0.006231323    0.028491598
     12        1           0.001989075    0.006402706   -0.005533136
     13        1           0.003654294    0.011916447    0.005317726
     14        6          -0.025638402   -0.004571884   -0.032585174
     15        1          -0.008808002   -0.000328285    0.008191322
     16        1          -0.006185253   -0.003178583    0.015632261
     17        6           0.015477572    0.013974561    0.021688569
     18        6           0.005256181   -0.012472823    0.001375603
     19        6          -0.002361902    0.008665306   -0.013154056
     20        6          -0.003531189   -0.009349188    0.006351702
     21        1           0.001530290    0.001744311   -0.008159911
     22        6          -0.005018549   -0.007270846   -0.007866306
     23        6          -0.001998367   -0.007406973   -0.006533244
     24        1           0.002745569    0.006755550   -0.003313319
     25        1          -0.002666360   -0.003933636    0.011309374
     26        1           0.001311273    0.006623535    0.004485400
     27        7          -0.011439429   -0.011426020   -0.003534093
     28        7          -0.007354046   -0.044871383   -0.020142375
     29        6           0.007299849   -0.029143762   -0.014961311
     30        1          -0.017098324    0.015506242    0.005669263
     31        1           0.012097977    0.014558195    0.000310670
     32        6           0.012163834   -0.038132983    0.008682787
     33        1           0.011164141    0.014683913   -0.000032094
     34        1          -0.018744033    0.011066247    0.007618783
     35        6           0.003452526    0.020664302    0.011697082
     36        1           0.010108573   -0.011184608   -0.006366846
     37        1          -0.011226519   -0.007329466   -0.005908445
     38        1          -0.001199206    0.010538640   -0.015860162
     39        6           0.007235165    0.031837693    0.010590806
     40        1           0.007928404   -0.013275327   -0.015130036
     41        1          -0.013874288   -0.005909629    0.000239709
     42        6          -0.002499419   -0.020369432    0.002794883
     43        1           0.009410786    0.005459684   -0.015050231
     44        1          -0.012599138    0.011173926   -0.004519820
     45        1           0.006527477    0.012642758    0.008613815
     46        6          -0.004749706   -0.014293274    0.036812726
     47        1           0.011318050   -0.008934402   -0.016211188
     48        1           0.007176513    0.016408040   -0.001641600
     49        6           0.017824621    0.012580462   -0.021471176
     50        6           0.010186794   -0.007680260   -0.001976488
     51        6           0.023538146    0.004111277   -0.002732100
     52        6           0.001382199   -0.010367906   -0.002914060
     53        1           0.002623360    0.004993120    0.008639084
     54        6           0.010802438    0.002034318    0.009992854
     55        1           0.004326676   -0.007629252   -0.001742333
     56        6           0.001705127   -0.002354679    0.009370580
     57        1          -0.001031851    0.008344678   -0.000046749
     58        1          -0.001684374   -0.004066790   -0.006963078
     59        1          -0.002221361    0.004217743   -0.006733034
     60        6          -0.001516993    0.023076723   -0.002814384
     61        6          -0.008149439    0.000293100    0.008530605
     62        6           0.005633423    0.002843824    0.002437848
     63        6          -0.007549639   -0.004316719    0.003262671
     64        1           0.010099305   -0.001658890    0.004886854
     65        6           0.009776195   -0.001800781    0.003973856
     66        1          -0.006485160   -0.003668041    0.002883231
     67        6           0.002173152   -0.007597834    0.007222750
     68        1           0.006119136    0.004675367   -0.002991956
     69        1          -0.007566902    0.001456377   -0.002372865
     70        1          -0.001299028    0.005925187   -0.005357703
 -------------------------------------------------------------------
 Cartesian Forces:  Max     0.044871383 RMS     0.011341026

 GradGradGradGradGradGradGradGradGradGradGradGradGradGradGradGradGradGrad
 Berny optimization.
 FormGI is forming the generalized inverse of G from B-inverse, IUseBI=4.
 Internal  Forces:  Max     0.194100855 RMS     0.022817779
 Search for a local minimum.
 Step number   1 out of a maximum of  388
 All quantities printed in internal units (Hartrees-Bohrs-Radians)
 Mixed Optimization -- RFO/linear search
 Second derivative matrix not updated -- first step.
 ITU=  0
     Eigenvalues ---    0.00237   0.00237   0.00237   0.00237   0.00237
     Eigenvalues ---    0.00237   0.00237   0.00766   0.00766   0.00766
     Eigenvalues ---    0.00766   0.00766   0.00766   0.01386   0.01387
     Eigenvalues ---    0.01388   0.01388   0.01728   0.01730   0.02152
     Eigenvalues ---    0.02152   0.02152   0.02152   0.02153   0.02153
     Eigenvalues ---    0.02153   0.02154   0.02154   0.02154   0.02154
     Eigenvalues ---    0.02155   0.02155   0.02155   0.02155   0.02155
     Eigenvalues ---    0.02155   0.02155   0.02155   0.02155   0.02155
     Eigenvalues ---    0.02155   0.02156   0.02156   0.02156   0.02156
     Eigenvalues ---    0.02157   0.02157   0.02157   0.02157   0.03454
     Eigenvalues ---    0.03454   0.04356   0.04356   0.04502   0.04502
     Eigenvalues ---    0.05269   0.05269   0.05410   0.05410   0.05496
     Eigenvalues ---    0.05496   0.05720   0.05720   0.05720   0.05720
     Eigenvalues ---    0.06518   0.06518   0.08669   0.08669   0.08860
     Eigenvalues ---    0.08860   0.09364   0.09364   0.12376   0.12376
     Eigenvalues ---    0.12453   0.12453   0.12902   0.12902   0.16000
     Eigenvalues ---    0.16000   0.16000   0.16000   0.16000   0.16000
     Eigenvalues ---    0.16000   0.16000   0.16000   0.16000   0.16000
     Eigenvalues ---    0.16000   0.16000   0.16000   0.16000   0.16000
     Eigenvalues ---    0.16000   0.16000   0.16000   0.16000   0.16000
     Eigenvalues ---    0.16000   0.16000   0.16000   0.16276   0.16276
     Eigenvalues ---    0.17820   0.17820   0.21983   0.21983   0.21985
     Eigenvalues ---    0.21985   0.22000   0.22000   0.22000   0.22000
     Eigenvalues ---    0.22000   0.22000   0.22022   0.22022   0.22493
     Eigenvalues ---    0.22493   0.23486   0.23486   0.24487   0.24488
     Eigenvalues ---    0.25000   0.25000   0.25000   0.25000   0.25000
     Eigenvalues ---    0.25000   0.28519   0.28519   0.28519   0.28519
     Eigenvalues ---    0.28519   0.28519   0.28519   0.33709   0.33709
     Eigenvalues ---    0.33709   0.33709   0.33718   0.33718   0.33718
     Eigenvalues ---    0.33718   0.33718   0.33718   0.33720   0.33720
     Eigenvalues ---    0.33720   0.33720   0.33725   0.33726   0.33726
     Eigenvalues ---    0.33726   0.35740   0.35740   0.35740   0.35740
     Eigenvalues ---    0.35740   0.35740   0.37230   0.37230   0.37230
     Eigenvalues ---    0.37230   0.37230   0.37230   0.37230   0.37230
     Eigenvalues ---    0.37230   0.37230   0.37230   0.37230   0.37230
     Eigenvalues ---    0.37230   0.37230   0.37230   0.37230   0.37230
     Eigenvalues ---    0.42121   0.42121   0.42224   0.42224   0.42300
     Eigenvalues ---    0.42300   0.42380   0.42380   0.46412   0.46412
     Eigenvalues ---    0.46412   0.46412   0.46453   0.46453   0.46453
     Eigenvalues ---    0.46453   0.46466   0.46466   0.46466   0.46466
     Eigenvalues ---    0.46497   0.46497   0.46497   0.46497
 RFO step:  Lambda=-3.56572209D-01 EMin= 2.36824141D-03
 Linear search not attempted -- first point.
 Maximum step size (   0.300) exceeded in Quadratic search.
    -- Step size scaled by   0.441
 Iteration  1 RMS(Cart)=  0.29101440 RMS(Int)=  0.00840641
 Iteration  2 RMS(Cart)=  0.13901254 RMS(Int)=  0.00127951
 Iteration  3 RMS(Cart)=  0.00430619 RMS(Int)=  0.00022494
 Iteration  4 RMS(Cart)=  0.00000531 RMS(Int)=  0.00022493
 Iteration  5 RMS(Cart)=  0.00000000 RMS(Int)=  0.00022493
 Variable       Old X    -DE/DX   Delta X   Delta X   Delta X     New X
                                 (Linear)    (Quad)   (Total)
    R1        2.63647   0.00203   0.00000   0.00097   0.00097   2.63744
    R2        2.63584  -0.00549   0.00000  -0.00327  -0.00328   2.63257
    R3        2.07796  -0.00766   0.00000  -0.00487  -0.00487   2.07309
    R4        2.63562   0.01301   0.00000   0.00718   0.00719   2.64281
    R5        2.07805  -0.02423   0.00000  -0.01540  -0.01540   2.06265
    R6        2.63697   0.01976   0.00000   0.01094   0.01095   2.64793
    R7        2.91018   0.01821   0.00000   0.01251   0.01251   2.92269
    R8        2.63584   0.00928   0.00000   0.00510   0.00510   2.64094
    R9        2.77790   0.00671   0.00000   0.00414   0.00414   2.78204
   R10        2.63643  -0.00556   0.00000  -0.00318  -0.00319   2.63324
   R11        2.07825  -0.00922   0.00000  -0.00586  -0.00586   2.07239
   R12        2.07795  -0.00752   0.00000  -0.00478  -0.00478   2.07317
   R13        2.02201   0.00595   0.00000   0.00360   0.00360   2.02561
   R14        2.02201   0.01344   0.00000   0.00813   0.00813   2.03014
   R15        2.91018   0.03038   0.00000   0.02087   0.02087   2.93105
   R16        2.02201  -0.00720   0.00000  -0.00435  -0.00435   2.01765
   R17        2.02201   0.01691   0.00000   0.01023   0.01023   2.03224
   R18        2.91018   0.02297   0.00000   0.01578   0.01578   2.92596
   R19        2.63647   0.01475   0.00000   0.00833   0.00835   2.64482
   R20        2.63584   0.06772   0.00000   0.03724   0.03726   2.67311
   R21        2.63562  -0.00727   0.00000  -0.00438  -0.00438   2.63124
   R22        2.07805  -0.00837   0.00000  -0.00532  -0.00532   2.07273
   R23        2.63643   0.01777   0.00000   0.01002   0.01003   2.64645
   R24        2.77790   0.01754   0.00000   0.01083   0.01083   2.78873
   R25        2.63697  -0.01485   0.00000  -0.00887  -0.00889   2.62808
   R26        2.07809  -0.00801   0.00000  -0.00509  -0.00509   2.07301
   R27        2.63584  -0.00706   0.00000  -0.00420  -0.00422   2.63162
   R28        2.07825  -0.01179   0.00000  -0.00749  -0.00749   2.07075
   R29        2.07809  -0.00810   0.00000  -0.00515  -0.00515   2.07295
   R30        2.77790   0.02347   0.00000   0.01449   0.01449   2.79239
   R31        2.77790   0.03562   0.00000   0.02200   0.02200   2.79990
   R32        2.77790   0.01272   0.00000   0.00785   0.00785   2.78575
   R33        2.77790   0.08120   0.00000   0.05014   0.05014   2.82804
   R34        2.02201   0.02245   0.00000   0.01358   0.01358   2.03559
   R35        2.02201   0.01837   0.00000   0.01111   0.01111   2.03312
   R36        2.91018   0.00721   0.00000   0.00495   0.00495   2.91513
   R37        2.02201   0.01822   0.00000   0.01102   0.01102   2.03303
   R38        2.02201   0.02264   0.00000   0.01369   0.01369   2.03570
   R39        2.91018  -0.00034   0.00000  -0.00024  -0.00024   2.90994
   R40        2.02201   0.01597   0.00000   0.00966   0.00966   2.03167
   R41        2.02201   0.01249   0.00000   0.00755   0.00755   2.02956
   R42        2.02201   0.01895   0.00000   0.01146   0.01146   2.03347
   R43        2.02201   0.02100   0.00000   0.01270   0.01270   2.03471
   R44        2.02201   0.01483   0.00000   0.00897   0.00897   2.03097
   R45        2.91018   0.01111   0.00000   0.00763   0.00763   2.91781
   R46        2.02201   0.01765   0.00000   0.01068   0.01068   2.03269
   R47        2.02201   0.01672   0.00000   0.01011   0.01011   2.03212
   R48        2.02201   0.01589   0.00000   0.00961   0.00961   2.03162
   R49        2.02201   0.02143   0.00000   0.01296   0.01296   2.03497
   R50        2.02201   0.01778   0.00000   0.01076   0.01076   2.03276
   R51        2.91018   0.00326   0.00000   0.00224   0.00224   2.91242
   R52        2.63647   0.00660   0.00000   0.00359   0.00359   2.64006
   R53        2.63584   0.00451   0.00000   0.00249   0.00250   2.63834
   R54        2.63562   0.00031   0.00000   0.00014   0.00014   2.63577
   R55        2.07805  -0.01028   0.00000  -0.00654  -0.00654   2.07151
   R56        2.63643   0.00552   0.00000   0.00299   0.00299   2.63942
[...]
 0189,-0.00000398,-0.00000827,-0.00001308,0.00001477,-0.00000458,0.0000
 0195,0.00002343,-0.00000643,-0.00000815,0.00000067,0.00000212,0.000025
 59,0.00000708,-0.00000131,0.00007544,0.00001757,0.00006538,-0.00008830
 ,-0.00007018,0.00001266,-0.00000680,-0.00002052,-0.00000994,0.00001521
 ,0.00001334,0.00001490,0.00004765,-0.00006721,-0.00000973,0.00000015,0
 .00001150,-0.00000124,-0.00001301,-0.00000420,-0.00000517,-0.00003102,
 -0.00000687,-0.00000404,0.00000012,0.00000618,-0.00000162,0.00000529,0
 .00000421,-0.00001266,0.00012468,-0.00000660,-0.00002175,-0.00001336,0
 .00001979,0.00003460,-0.00006847,-0.00007256,-0.00000774,0.00000984,0.
 00000316,-0.00001264,-0.00002293,0.00000172,0.00069470,0.00045113,0.00
 008128,-0.00013171,0.00024585,-0.00020103,-0.00002386,-0.00004468,-0.0
 0002394,-0.00001711,0.00002782,-0.00000145,0.00000322,-0.00000007,-0.0
 0000046,-0.00000247,-0.00000403,-0.00001089,0.00000306,0.00000239,-0.0
 0001553,-0.00001083,0.00000344,-0.00001057,0.00000146,-0.00000144,0.00
 000288,-0.00000156,0.00000263,-0.00000178,0.00000131,0.00000273,0.0000
 0487,-0.00000190,-0.00000071,0.00000024,-0.00000053,-0.00000202,0.0000
 0204,0.00000002,-0.00000177,-0.00000131,0.00001459,-0.00000273,0.00001
 080,-0.00000107,-0.00000080,-0.00000243,-0.00000711,-0.00000096,0.0000
 0110,0.00000163,0.00000028,0.00000264,-0.00000355,0.00000084,0.0000006
 8,-0.00000083,0.00000180,-0.00000226,-0.00000116,-0.00000094,0.0000009
 9,0.00000240,-0.00000378,-0.00000223,0.00000156,0.00000209,0.,0.000000
 74,0.00000038,0.00000205,0.00000082,-0.00000039,0.00000063,0.00000187,
 -0.00000011,0.00000056,-0.00000273,-0.00000292,-0.00000045,-0.00000177
 ,0.00000049,-0.00000165,-0.00269165,0.00471027,0.00372017,0.01179700,0
 .01060161,-0.00412799,-0.00052522,-0.00012846,-0.00032453,0.06974885,0
 .09064967,-0.09272015,0.00009883,-0.00234866,-0.00222220,-0.00127218,0
 .00284235,0.00501682,0.00016733,-0.00060294,-0.00085109,-0.00326413,-0
 .00329103,0.00453379,-0.07493616,-0.10098299,0.08931302,-0.00000939,-0
 .00000326,-0.00000252,0.00001745,0.00000862,0.00000017,-0.00005083,-0.
 00002078,0.00001045,0.00006015,0.00011054,0.00003327,-0.00001235,-0.00
 001141,-0.00002239,0.00001720,0.00000224,-0.00000909,-0.00000139,-0.00
 000526,-0.00000124,-0.00000171,-0.00000932,-0.00000741,0.00002047,-0.0
 0001064,0.00000630,-0.00000388,-0.00000386,0.00000172,-0.00000705,0.00
 001344,0.00001835,0.00001361,-0.00001223,0.00000025,-0.00001239,0.0000
 0212,0.00001231,0.00002556,-0.00001367,-0.00001143,0.00003525,0.000003
 44,-0.00004996,-0.00009326,0.00002893,0.00001500,0.00001694,-0.0000224
 9,-0.00000662,-0.00001673,0.00001778,0.00004187,-0.00000125,-0.0000039
 6,0.00000263,0.00000930,-0.00000848,-0.00000437,-0.00000569,0.00000692
 ,0.00000319,0.00000633,-0.00000261,-0.00000328,0.00000162,-0.00000217,
 0.00000160,-0.00000134,0.00000755,-0.00000130,-0.00000097,0.00000017,-
 0.00000257,-0.00000058,0.00000024,-0.00000239,-0.00002016,0.00010157,-
 0.00016585,0.00002301,-0.00000043,0.00001484,-0.00000963,-0.00012626,-
 0.00002743,-0.00001433,0.00002283,-0.00000260,-0.00000530,-0.00000265,
 0.00000641,-0.00039368,-0.00043373,0.00042417,0.00001934,0.00004016,-0
 .00003642,-0.00012026,0.00018499,-0.00013215,-0.00001962,0.00003633,0.
 00000004,0.00000787,-0.00000281,-0.00000403,0.00000048,-0.00000466,-0.
 00000320,0.00000359,0.00000651,-0.00002038,-0.00000623,0.00000646,-0.0
 0001672,0.00000064,0.00000105,0.00000482,0.00000538,-0.00000029,0.0000
 0326,0.00000034,-0.00000006,0.00000344,0.00000359,-0.00000071,-0.00000
 283,0.00000066,-0.00000026,0.00000336,-0.00000322,0.00000015,-0.000001
 64,-0.00002270,-0.00000424,-0.00002303,0.00000532,0.00000185,0.0000042
 5,0.00000444,-0.00000133,0.00000502,-0.00000733,-0.00000914,-0.0000138
 7,-0.00000967,-0.00000465,-0.00000428,-0.00001219,0.00001564,-0.000000
 90,-0.00000222,-0.00000667,0.00001193,0.00000166,0.00000419,0.00000002
 ,0.00000027,0.00000677,0.00000379,0.00000219,-0.00000360,-0.00000343,-
 0.00000270,-0.00000025,0.00001658,0.00000466,-0.00000295,-0.00000277,0
 .00001018,0.00000693,0.00000121,0.00000795,0.00000196,0.00000240,0.001
 40424,0.00166442,-0.00162643,0.00065463,-0.00011494,0.00014221,-0.0083
 4921,-0.00106989,0.00001246,0.00001386,-0.00335233,0.00176612,-0.00010
 730,0.00009732,0.00002844,-0.33444333,0.01620979,-0.03304305,0.0009053
 1,0.00034082,0.00013850,-0.01436010,0.00344843,-0.00355375,-0.00085698
 ,0.00019758,-0.00020943,0.35472377,0.00000550,0.00000300,0.00000113,-0
 .00000467,0.00000282,0.00000149,0.00000342,-0.00000501,0.00000816,-0.0
 0003689,-0.00004675,-0.00001839,0.00000785,-0.00000469,-0.00000539,-0.
 00000643,0.00000476,0.00000236,0.00000056,0.00000258,0.00000216,-0.000
 00050,0.00000202,-0.00000065,-0.00001260,0.00000015,-0.00000242,0.0000
 0465,0.00000092,0.00000010,0.00000175,0.00002517,0.00001371,0.00000409
 ,-0.00000526,0.00000946,0.00001046,-0.00000599,0.00000166,0.00004509,-
 0.00000446,-0.00002869,-0.00000495,0.00001591,-0.00000490,-0.00006148,
 0.00003489,0.00002549,-0.00000872,-0.00001634,0.00000509,0.00000254,0.
 00000232,0.00001468,0.00001642,0.00000538,-0.00001852,0.00000122,-0.00
 001200,0.00000615,-0.00001127,0.00000407,0.00000539,0.00000039,-0.0000
 0187,0.00000225,0.00000068,-0.00000311,0.00000121,-0.00000246,0.000002
 36,-0.00000241,-0.00000146,0.00000263,0.00000129,-0.00000134,0.0000024
 2,-0.00000050,-0.00000623,-0.00006375,-0.00003692,0.00000153,-0.000004
 92,0.00002272,-0.00001234,0.00005477,0.00004948,-0.00000118,-0.0000004
 9,-0.00000364,0.00000326,-0.00000140,-0.00000418,0.00106042,0.00048756
 ,-0.00017909,-0.00006392,-0.00002324,-0.00000933,0.00018392,-0.0002790
 6,0.00010048,0.00000716,-0.00002701,0.00000171,-0.00000367,0.00000350,
 0.00000569,-0.00000298,0.00000190,-0.00000003,-0.00000137,-0.00000488,
 0.00001288,-0.00000423,0.00000661,-0.00001909,-0.00000028,0.00000037,0
 .00000573,0.00000030,-0.00000061,0.00000114,0.00000023,0.00000148,0.00
 000455,-0.00000076,0.00000061,-0.00000057,0.00000033,-0.00000212,0.000
 00234,0.00000137,-0.00000038,-0.00000139,-0.00000484,-0.00000640,-0.00
 001343,0.00000151,0.00000108,0.00000099,-0.00000009,-0.00000146,0.0000
 0727,0.00000043,0.00001057,-0.00000657,-0.00001041,-0.00001787,0.00000
 389,-0.00001349,-0.00000288,-0.00001544,-0.00001691,-0.00002670,0.0000
 0790,0.00000429,-0.00000090,-0.00000181,-0.00000228,0.00006620,0.00001
 833,0.00000312,-0.00000241,0.00001181,-0.00002924,0.00000005,0.0000322
 0,0.00000928,-0.00001077,-0.00000414,-0.00000828,-0.00000940,-0.000003
 50,0.00002834,0.00000666,-0.00000122,0.00063334,-0.00095546,0.00596049
 ,-0.00008487,-0.00100304,0.00046573,0.02491047,0.00232770,0.00187570,-
 0.00227144,-0.00081778,0.00507365,0.00008233,-0.00024406,-0.00069184,0
 .01642712,-0.05377268,0.01335255,-0.00024085,-0.00045858,-0.00241161,-
 0.02256792,0.00539564,-0.00367455,-0.00125107,0.00025408,-0.00002409,-
 0.01736956,0.04955824,-0.00000760,-0.00000796,-0.00000232,0.00001949,-
 0.00000043,-0.00000347,-0.00005344,-0.00002363,0.00001949,0.00003889,0
 .00009085,0.00002306,-0.00001602,-0.00000942,-0.00001535,0.00001317,0.
 00000254,-0.00000383,0.00000111,-0.00000168,-0.00000127,-0.00000366,-0
 .00000591,-0.00000716,0.00001891,-0.00000947,0.00000197,-0.00000205,-0
 .00000113,-0.00000235,-0.00000298,0.00002244,0.00002661,0.00002209,-0.
 00001477,0.00001633,-0.00001640,0.00001385,0.00000101,0.00005821,-0.00
 000772,-0.00005708,0.00003416,-0.00000099,-0.00006373,-0.00016562,0.00
 003354,0.00006559,0.00001164,-0.00005432,0.00001864,0.00000511,0.00001
 332,0.00002192,0.00001060,0.00000788,-0.00001333,0.00000049,-0.0000062
 3,0.00000079,-0.00001279,0.00000102,-0.00000479,-0.00000151,-0.0000015
 1,0.00000333,0.00000090,0.00000413,0.00000082,0.00000288,0.00000561,-0
 .00000314,-0.00000212,0.00000414,0.00000227,0.00000019,0.00000547,0.00
 000119,0.00004804,0.00001710,-0.00020278,0.00001223,0.00001078,0.00003
 973,-0.00002738,-0.00008071,-0.00000164,-0.00000665,0.00001445,0.00000
 721,-0.00000521,-0.00000415,0.00000586,-0.00096861,-0.00008491,0.00045
 953,0.00002717,-0.00004619,0.00001544,-0.00019838,0.00027919,-0.000290
 65,-0.00001520,0.00001559,0.00000410,0.00000816,0.00000005,-0.00000602
 ,-0.00000029,-0.00000200,-0.00000510,0.00000335,-0.00000009,-0.0000097
 9,-0.00001053,0.00000616,-0.00003378,0.00000016,0.00000517,0.00001110,
 0.00000360,-0.00000130,0.00000219,0.00000203,-0.00000375,0.00000300,0.
 00000149,-0.00000047,-0.00000303,0.00000153,-0.00000069,0.00000652,-0.
 00000304,0.00000375,-0.00000242,-0.00000855,-0.00001330,-0.00002903,0.
 00000443,0.00000846,0.00000698,0.00000174,-0.00000310,0.00000718,-0.00
 000909,0.00000652,-0.00002243,0.00000064,-0.00000165,0.00001354,-0.000
 04874,0.00001617,-0.00003135,-0.00000747,-0.00003187,-0.00000028,0.000
 00407,0.00000681,0.00000174,-0.00005339,0.00003777,0.00003873,0.000007
 32,-0.00000297,-0.00001325,-0.00000645,-0.00000433,0.00008487,0.000001
 55,0.00001136,-0.00000273,0.00005165,0.00001815,-0.00000863,0.00001118
 ,-0.00000714,-0.00000494,-0.00061852,0.00600538,0.00334254,0.00024181,
 0.00038192,-0.00053849,-0.01794407,-0.00022585,0.00104528,0.00093284,0
 .00498404,0.00351673,0.00000987,-0.00068459,-0.00077382,-0.03272803,0.
 01324296,-0.04736375,0.00052601,-0.00240751,-0.00227421,0.01420247,-0.
 00162543,0.00467652,0.00074719,0.00008087,0.00034301,0.03595740,-0.017
 67976,0.04020046,0.00000216,0.00000030,0.00000159,0.00000253,0.0000001
 3,0.00000022,-0.00001665,0.00000536,0.00000344,-0.00000638,0.00001743,
 0.00000009,-0.00000273,0.00000550,-0.00002365,0.00001442,0.00001338,-0
 .00000433,-0.00000208,-0.00000388,-0.00000329,0.00000162,-0.00000290,-
 0.00000429,0.00001152,-0.00001725,0.00000818,-0.00000108,-0.00000022,0
 .00000301,-0.00000991,-0.00001244,-0.00000208,0.00000353,0.00000150,-0
 .00000373,0.00000010,-0.00000036,0.00000092,0.00000111,0.00001145,0.00
 001208,0.00000053,-0.00000830,0.00000243,-0.00000114,-0.00000543,-0.00
 000135,0.00000385,0.00001669,0.00000427,0.00000159,-0.00001603,0.00000
 447,0.00000057,0.00000394,-0.00000177,0.00001361,0.00001001,-0.0000046
 2,-0.00000496,0.00002710,-0.00000542,-0.00000396,-0.00000125,0.0000029
 9,0.00000010,-0.00000828,-0.00000144,-0.00000922,-0.00000885,-0.000004
 26,-0.00000066,-0.00000050,0.00000123,-0.00000005,-0.00000122,-0.00000
 162,0.00003398,0.00002369,-0.00005459,-0.00000740,-0.00000599,-0.00000
 481,-0.00000039,-0.00003844,-0.00000743,-0.00000324,0.00000533,0.00000
 100,-0.00000209,0.00000227,0.00000062,0.00014475,0.00005623,0.00012307
 ,0.00002764,0.00008259,-0.00004260,0.00005893,-0.00004410,0.00001167,-
 0.00000622,0.00001033,-0.00000191,0.00000213,-0.00000111,-0.00000182,0
 .00000101,-0.00000152,0.00000072,0.00000098,0.00000302,-0.00000567,-0.
 00000422,-0.00000010,0.00000506,0.00000102,-0.00000173,-0.00000175,-0.
 00000053,0.00000132,-0.00000106,0.00000074,0.00000103,0.00000070,-0.00
 000024,-0.00000021,0.00000061,-0.00000082,-0.00000005,-0.00000048,-0.0
 0000026,-0.00000133,-0.00000011,0.00000757,0.00000365,0.00001098,-0.00
 000133,-0.00000236,-0.00000249,-0.00000282,0.00000028,-0.00000239,0.00
 000013,-0.00000131,0.00000100,0.00000290,0.00000456,0.00000122,0.00000
 332,-0.00000327,0.00000134,0.00000218,0.00000621,-0.00000661,-0.000000
 93,-0.00000304,-0.00000236,0.00000244,-0.00000807,-0.00000450,-0.00000
 097,0.00000145,-0.00000163,0.00001004,-0.00000086,-0.00000003,-0.00000
 198,0.00000385,0.00000371,-0.00000339,-0.00000316,0.00000372,-0.000013
 86,0.00000040,-0.00000156,-0.00100408,-0.00054443,0.00033126,-0.005580
 09,-0.00122642,-0.00013348,-0.00208369,-0.00274174,0.00127337,-0.00717
 973,0.02508810,-0.01788162,-0.00053011,0.00132327,-0.00091332,0.011745
 06,-0.01533581,0.01120846,0.00044851,-0.00086287,0.00056523,-0.1029990
 9,0.08056459,-0.06012144,0.00126027,-0.00018526,0.00049926,0.00095773,
 0.00065761,-0.00010199,0.10471773,0.00000366,0.00000205,0.00000113,-0.
 00000019,-0.00000613,-0.00000292,0.00000917,0.00000769,-0.00000129,-0.
 00001229,-0.00006625,-0.00000258,0.00000868,0.00000988,0.00002158,-0.0
 0000727,-0.00000419,0.00000430,0.00000247,0.00000466,0.00000139,-0.000
 00073,0.00000408,0.00000371,-0.00001046,0.00000619,-0.00000327,0.00000
 504,0.00000268,-0.00000092,-0.00000413,-0.00000534,-0.00000036,0.00000
 323,0.00000346,0.00001132,0.00000178,0.00000935,-0.00001700,0.00001250
 ,0.00000724,-0.00003057,0.00000026,-0.00000543,0.00000263,-0.00001005,
 -0.00002372,0.00000535,-0.00000913,-0.00001857,0.00001595,0.00001640,-
 0.00000259,-0.00001507,0.00001011,0.00001159,-0.00001254,-0.00000601,0
 .00000094,0.00000444,-0.00001118,-0.00000141,-0.00000933,-0.00000652,0
 .00000108,0.00000453,-0.00000029,0.00000428,-0.00000081,0.00000147,-0.
 00000136,-0.00000145,-0.00000026,0.00000290,0.00000378,0.00000035,0.00
 000294,0.00000216,0.00005781,0.00004688,0.00005407,-0.00001585,0.00000
 840,0.00000798,0.00000473,0.00005740,-0.00003200,0.00001387,-0.0000174
 2,0.00000617,0.00000167,0.00000829,-0.00000196,-0.00003254,-0.00015725
 ,-0.00066380,-0.00007933,-0.00005750,0.00005746,0.00008458,-0.00002573
 ,0.00004384,0.00000365,-0.00000244,0.00000162,-0.00000020,0.00000170,-
 0.00000219,0.00000021,0.00000298,0.00000267,0.00000053,-0.00000560,0.0
 0000585,-0.00000167,-0.00000342,-0.00000358,-0.00000051,0.00000269,0.0
 0000206,-0.00000322,-0.00000063,-0.00000241,0.00000121,-0.00000291,-0.
 00000237,-0.00000261,0.00000042,0.00000108,0.00000017,-0.00000002,0.00
 000083,0.00000112,0.00000260,0.00000032,0.00001947,-0.00000506,0.00000
 800,-0.00000326,0.00000328,-0.00000085,-0.00000357,-0.00000050,-0.0000
 0134,-0.00000240,-0.00000209,-0.00000021,0.00000025,0.00000306,-0.0000
 0020,-0.00000193,-0.00000179,0.00000298,0.00000206,0.00000244,-0.00000
 398,0.00000043,-0.00000119,-0.00000095,-0.00000212,-0.00000584,-0.0000
 0257,0.00000238,0.00000255,-0.00000648,0.00000980,0.00000017,0.0000068
 8,-0.00000142,0.00000573,0.00000099,0.00000356,-0.00000120,0.00000359,
 -0.00001041,-0.00000062,-0.00000346,-0.00051923,-0.00012171,-0.0004514
 8,-0.00012218,0.00343863,0.00265906,-0.00381062,0.00073020,0.00409712,
 -0.00091316,0.00189235,0.00024691,-0.00010126,0.00006268,0.00015271,0.
 01067539,-0.01203044,0.01060851,0.00055269,-0.00070360,0.00065183,0.08
 057277,-0.20780832,0.12369534,0.00043118,-0.00069450,-0.00219007,0.000
 04383,-0.00044468,-0.00230050,-0.08685247,0.21587600,-0.00000710,-0.00
 000465,-0.00000114,0.00000831,0.00000659,0.00000557,-0.00002537,-0.000
 01360,-0.00000091,0.00004284,0.00004993,0.00004774,-0.00000092,-0.0000
 0989,-0.00000967,0.00000571,-0.00000048,-0.00000114,-0.00000311,-0.000
 00215,-0.00000303,-0.00000031,-0.00000594,-0.00000796,0.00000842,-0.00
 000337,0.00000591,-0.00000198,-0.00000071,0.00000009,-0.00000721,0.000
 00756,0.00000621,0.00000442,-0.00000527,-0.00000277,-0.00000093,-0.000
 01017,0.00001439,0.00001304,-0.00000745,0.00000553,0.00000188,0.000001
 56,-0.00000752,-0.00002387,0.00005074,-0.00000290,0.00000917,0.0000437
 0,-0.00000491,0.00004744,-0.00003768,0.00001523,0.00001623,-0.00000443
 ,-0.00002482,0.00000654,-0.00001427,0.00001691,-0.00006125,0.00004841,
 -0.00002362,-0.00000012,-0.00000125,0.00000595,0.00000219,-0.00001723,
 -0.00000169,-0.00001537,-0.00000952,-0.00000917,-0.00000356,0.00000089
 ,0.00000264,-0.00000370,0.00000392,-0.00000101,-0.00002082,0.00015527,
 -0.00009707,0.00000001,-0.00001616,0.00002687,0.00002451,-0.00005475,-
 0.00003762,-0.00001218,0.00000762,-0.00000162,-0.00000229,-0.00000420,
 -0.00000133,-0.00005575,-0.00040205,-0.00074637,-0.00007927,-0.0000982
 4,0.00004650,0.00001791,0.00000987,-0.00001376,-0.00000908,0.00002802,
 -0.00000008,0.00000341,0.,0.00000185,-0.00000320,-0.00000352,-0.000003
 06,0.00000188,0.00000280,-0.00001316,-0.00001366,0.00000873,-0.0000224
 9,0.00000134,-0.00000085,0.00000604,0.00000245,0.00000141,0.00000103,0
 .00000114,0.00000296,0.00000727,0.00000076,-0.00000062,-0.00000157,-0.
 00000008,-0.00000261,0.00000396,-0.00000122,-0.00000195,-0.00000210,-0
 .00000669,-0.00000389,-0.00000860,0.00000320,-0.00000105,-0.00000040,-
 0.00000274,-0.00000230,0.00000627,-0.00000177,0.00000283,-0.00000825,-
 0.00001677,-0.00000857,0.00000095,-0.00000405,0.00000643,-0.00000276,-
 0.00000947,-0.00000593,0.00001132,0.00000530,-0.00000365,-0.00000654,0
 .00000199,0.00001801,0.00000370,0.00000089,-0.00000416,0.00000665,-0.0
 0000619,0.00000255,0.00001403,0.00001338,-0.00001000,-0.00000146,-0.00
 000274,-0.00000519,-0.00000272,0.00001201,0.00000346,-0.00000099,0.000
 42819,-0.00062039,-0.00024449,-0.00091071,0.00262885,0.00548906,0.0020
 2928,0.00413728,0.00440693,0.00006666,0.00216565,0.00087848,0.00001060
 ,0.00025015,0.00013730,-0.00667279,0.00872868,-0.00411532,-0.00036350,
 0.00055650,-0.00013232,-0.06009779,0.12359237,-0.12467538,0.00006593,-
 0.00223805,-0.00240185,0.00032098,-0.00225495,-0.00223935,0.06526960,-
 0.13663162,0.12370857\\0.00000042,0.00000050,0.00000390,0.00000055,0.0
 0000371,0.00000538,-0.00000053,-0.00000885,-0.00000462,-0.00000129,0.0
 0000323,-0.00000230,-0.00000003,-0.00000051,0.00000171,-0.00000014,-0.
 00000257,0.00000276,-0.00000016,-0.00000087,0.00000238,0.00000005,-0.0
 0000277,0.00000044,-0.00000026,-0.00000124,0.00000359,0.00000006,-0.00
 000096,0.00000361,-0.00000102,-0.00000133,0.00000853,-0.00000104,0.000
 00205,-0.00000023,-0.00000197,-0.00000157,-0.00000244,-0.00000521,0.00
 000306,-0.00000664,-0.00000054,-0.00000013,-0.00000057,-0.00000041,0.0
 0000030,0.00000201,0.00000123,-0.00000144,0.00000012,0.00000066,-0.000
 00032,0.00000154,-0.00000172,-0.00000043,-0.00000111,0.00000201,-0.000
 00037,-0.00000083,0.00000161,-0.00000132,0.00000024,-0.00000173,-0.000
 00393,0.00000231,0.00000062,0.00000241,0.00000047,0.00000170,-0.000000
 09,0.00000138,-0.00000165,-0.00000058,0.00000030,0.00000094,0.00000046
 ,0.00000040,-0.00000133,0.00000198,0.00000103,0.00000712,-0.00000246,-
 0.00000379,-0.00000035,-0.00000509,0.00000439,-0.00000163,0.00000010,0
 .00000156,-0.00000175,0.00000025,0.00000101,0.00000767,0.00000002,0.00
 000203,0.00000227,-0.00000142,0.00000003,-0.00000271,0.00000160,0.0000
 0195,-0.00000198,0.00000088,-0.00000119,-0.00000178,-0.00000030,0.0000
 0124,-0.00000181,-0.00000051,0.00000157,-0.00000239,-0.00000106,0.0000
 0092,-0.00000471,0.00000337,0.00000200,-0.00000103,0.00000088,0.000000
 57,-0.00000203,-0.00000154,-0.00000104,-0.00000204,-0.00000040,-0.0000
 0146,-0.00000161,0.00000186,-0.00000154,-0.00000356,0.00000097,-0.0000
 0115,-0.00000126,0.00000048,-0.00000263,-0.00000995,-0.00000112,-0.000
 00492,0.00000059,0.00000195,-0.00000039,0.00000032,0.00000131,-0.00000
 458,-0.00000083,0.00000498,0.00000141,0.00000245,0.00000067,-0.0000025
 7,0.00000197,0.00000127,-0.00000350,0.00000152,0.00000201,-0.00000362,
 0.00000027,0.00000072,-0.00000154,0.00000034,-0.00000085,-0.00000329,-
 0.00000149,-0.00000031,-0.00000196,0.00000122,0.00000118,-0.00000268,0
 .00000180,0.00000112,-0.00000291,0.00000025,0.00000127,-0.00000306,0.0
 0000191,0.00000131,-0.00000366,-0.00000125,-0.00000117,0.00000520,0.00
 000233,-0.00000362,-0.00000118,-0.00000008,0.00000080,-0.00000077,0.00
 000239,0.00000232,0.00000299,0.00000280,-0.00000053,0.00000363,0.00000
 283,-0.00000056,0.00000028,0.00000113,0.00000056,0.00000040,0.00000367
 ,0.00000013,-0.00000153,0.00000303,-0.00000022,0.00000157,0.00000202,0
 .00000056,-0.00000061,0.00000351,0.00000016,-0.00000054\\\@
 The archive entry for this job was punched.


      HUMANKIND PERIODICALLY GOES THROUGH A SPEEDUP OF ITS AFFAIRS, 
      THEREBY EXPERIENCING THE RACE BETWEEN THE RENEWABLE VITALITY
      OF THE LIVING, AND THE BECKONING VITIATION OF DECADENCE.
      IN THIS PERIODIC RACE, ANY PAUSE BECOMES A LUXURY.
      ONLY THEN CAN ONE REFLECT THAT ALL IS PERMITTED;
      ALL IS POSSIBLE.

                              -- THE APOCRYPHA OF MUAD'DIB
                                 CHILDREN OF DUNE, BY FRANK HERBERT
 Job cpu time:       0 days 16 hours  3 minutes 41.1 seconds.
 Elapsed time:       0 days  2 hours  0 minutes 31.4 seconds.
 File lengths (MBytes):  RWF=   2899 Int=      0 D2E=      0 Chk=     54 Scr=      1
 Normal termination of Gaussian 16 at Thu Oct 21 19:01:57 2021.
