 Entering Gaussian System, Link 0=/home/rong/g16/g16
 Input=/home/rong/g16/092321/AdamanteMebz.gjf
 Output=/home/rong/g16/092321/AdamanteMebz.log
 Initial command:
 /home/rong/g16/l1.exe "/tmp/Gau-88890.inp" -scrdir="/tmp/"
 Default is to use a total of   8 processors:
                                8 via shared-memory
                                1 via Linda
 Entering Link 1 = /home/rong/g16/l1.exe PID=     88892.
  
 Copyright (c) 1988-2019, Gaussian, Inc.  All Rights Reserved.
  
 This is part of the Gaussian(R) 16 program.  It is based on
 the Gaussian(R) 09 system (copyright 2009, Gaussian, Inc.),
 the Gaussian(R) 03 system (copyright 2003, Gaussian, Inc.),
 the Gaussian(R) 98 system (copyright 1998, Gaussian, Inc.),
 the Gaussian(R) 94 system (copyright 1995, Gaussian, Inc.),
 the Gaussian 92(TM) system (copyright 1992, Gaussian, Inc.),
 the Gaussian 90(TM) system (copyright 1990, Gaussian, Inc.),
 the Gaussian 88(TM) system (copyright 1988, Gaussian, Inc.),
 the Gaussian 86(TM) system (copyright 1986, Carnegie Mellon
 University), and the Gaussian 82(TM) system (copyright 1983,
 Carnegie Mellon University). Gaussian is a federally registered
 trademark of Gaussian, Inc.
  
 This software contains proprietary and confidential information,
 including trade secrets, belonging to Gaussian, Inc.
  
 This software is provided under written license and may be
 used, copied, transmitted, or stored only in accord with that
 written license.
  
 The following legend is applicable only to US Government
 contracts under FAR:
  
                    RESTRICTED RIGHTS LEGEND
  
 Use, reproduction and disclosure by the US Government is
 subject to restrictions as set forth in subparagraphs (a)
 and (c) of the Commercial Computer Software - Restricted
 Rights clause in FAR 52.227-19.
  
 Gaussian, Inc.
 340 Quinnipiac St., Bldg. 40, Wallingford CT 06492
  
  
 ---------------------------------------------------------------
 Warning -- This program may not be used in any manner that
 competes with the business of Gaussian, Inc. or will provide
 assistance to any competitor of Gaussian, Inc.  The licensee
 of this program is prohibited from giving any competitor of
 Gaussian, Inc. access to this program.  By using this program,
 the user acknowledges that Gaussian, Inc. is engaged in the
 business of creating and licensing software in the field of
 computational chemistry and represents and warrants to the
 licensee that it is not a competitor of Gaussian, Inc. and that
 it will not use this program in any manner prohibited above.
 ---------------------------------------------------------------
  

 Cite this work as:
 Gaussian 16, Revision C.01,
 M. J. Frisch, G. W. Trucks, H. B. Schlegel, G. E. Scuseria, 
 M. A. Robb, J. R. Cheeseman, G. Scalmani, V. Barone, 
 G. A. Petersson, H. Nakatsuji, X. Li, M. Caricato, A. V. Marenich, 
 J. Bloino, B. G. Janesko, R. Gomperts, B. Mennucci, H. P. Hratchian, 
 J. V. Ortiz, A. F. Izmaylov, J. L. Sonnenberg, D. Williams-Young, 
 F. Ding, F. Lipparini, F. Egidi, J. Goings, B. Peng, A. Petrone, 
 T. Henderson, D. Ranasinghe, V. G. Zakrzewski, J. Gao, N. Rega, 
 G. Zheng, W. Liang, M. Hada, M. Ehara, K. Toyota, R. Fukuda, 
 J. Hasegawa, M. Ishida, T. Nakajima, Y. Honda, O. Kitao, H. Nakai, 
 T. Vreven, K. Throssell, J. A. Montgomery, Jr., J. E. Peralta, 
 F. Ogliaro, M. J. Bearpark, J. J. Heyd, E. N. Brothers, K. N. Kudin, 
 V. N. Staroverov, T. A. Keith, R. Kobayashi, J. Normand, 
 K. Raghavachari, A. P. Rendell, J. C. Burant, S. S. Iyengar, 
 J. Tomasi, M. Cossi, J. M. Millam, M. Klene, C. Adamo, R. Cammi, 
 J. W. Ochterski, R. L. Martin, K. Morokuma, O. Farkas, 
 J. B. Foresman, and D. J. Fox, Gaussian, Inc., Wallingford CT, 2019.
 
 ******************************************
 Gaussian 16:  ES64L-G16RevC.01  3-Jul-2019
                23-Sep-2021 
 ******************************************
 %mem=15GB
 %chk=AdamanteMebz.chk
 %nprocshared=8
 Will use up to    8 processors via shared memory.
 ----------------------------------------------------
 # opt freq b3lyp/6-31g(d) scrf=(smd,solvent=toluene)
 ----------------------------------------------------
 1/18=20,19=15,26=3,38=1/1,3;
 2/9=110,12=2,17=6,18=5,40=1/2;
 3/5=1,6=6,7=1,11=2,25=1,30=1,70=32201,71=1,72=13,74=-5/1,2,3;
 4//1;
 5/5=2,38=5,53=13/2;
 6/7=2,8=2,9=2,10=2,28=1/1;
 7//1,2,3,16;
 1/18=20,19=15,26=3/3(2);
 2/9=110/2;
 99//99;
 2/9=110/2;
 3/5=1,6=6,7=1,11=2,25=1,30=1,70=32205,71=1,72=13,74=-5/1,2,3;
 4/5=5,16=3,69=1/1;
 5/5=2,38=5,53=13/2;
 7//1,2,3,16;
 1/18=20,19=15,26=3/3(-5);
 2/9=110/2;
 6/7=2,8=2,9=2,10=2,19=2,28=1/1;
 99/9=1/99;
 ------------
 AdamanteMebz
 ------------
 Symbolic Z-matrix:
 Charge =  0 Multiplicity = 1
 C                     1.38226  -0.14705   0.01383 
 C                     2.77742  -0.14705   0.01617 
 C                     3.47495   1.06071   0.01851 
 C                     2.7773    2.26921   0.01731 
 C                     1.38248   2.26913   0.01449 
 C                     0.68488   1.06093   0.01314 
 H                     0.83251  -1.09937   0.01243 
 H                     0.83235   3.22141   0.01354 
 C                     3.5478    3.6026    0.01982 
 H                     3.74507   3.89864   1.02894 
 H                     4.4731    3.48083  -0.50353 
 H                     2.96057   4.35478  -0.46423 
 O                     4.90495   1.06081   0.02174 
 H                     5.22442   0.28141   0.48225 
 C                    -0.85512   1.06118   0.01031 
 H                    -1.21328   1.59318   0.86681 
 H                    -1.21007   1.53759  -0.87961 
 H                    -1.21201   0.05294   0.04174 
 C                     3.54697  -1.48098   0.01801 
 H                     4.64092  -1.24958   0.07822 
 C                     3.25115  -2.24989  -1.26615 
 C                     3.12839  -2.31761   1.22325 
 H                     3.55946  -1.63367  -2.15193 
 C                     1.75675  -2.54668  -1.34646 
 C                     4.02919  -3.56228  -1.26208 
 H                     3.34644  -1.75116   2.16717 
 C                     1.63414  -2.61438   1.1401 
 C                     3.90666  -3.62988   1.22446 
 H                     1.53041  -3.10133  -2.29253 
 H                     1.17965  -1.58716  -1.36116 
 C                     1.33605  -3.38451  -0.14279 
 H                     5.12798  -3.35177  -1.21464 
 H                     3.82538  -4.12706  -2.20729 
 C                     3.61113  -4.40123  -0.05828 
 H                     1.05579  -1.65556   1.15009 
 H                     1.31743  -3.21897   2.02783 
 H                     5.00422  -3.41994   1.29657 
 H                     3.61264  -4.24453   2.11309 
 H                     0.23679  -3.60221  -0.20292 
 C                     2.11633  -4.69558  -0.13999 
 H                     4.18403  -5.3662   -0.0563 
 H                     1.80439  -5.32088   0.735 
 H                     1.8936   -5.27161  -1.07406 
 

 GradGradGradGradGradGradGradGradGradGradGradGradGradGradGradGradGradGrad
 Berny optimization.
 Initialization pass.
                           ----------------------------
                           !    Initial Parameters    !
                           ! (Angstroms and Degrees)  !
 --------------------------                            --------------------------
 ! Name  Definition              Value          Derivative Info.                !
 --------------------------------------------------------------------------------
 ! R1    R(1,2)                  1.3952         estimate D2E/DX2                !
 ! R2    R(1,6)                  1.3948         estimate D2E/DX2                !
 ! R3    R(1,7)                  1.0996         estimate D2E/DX2                !
 ! R4    R(2,3)                  1.3947         estimate D2E/DX2                !
 ! R5    R(2,19)                 1.54           estimate D2E/DX2                !
 ! R6    R(3,4)                  1.3954         estimate D2E/DX2                !
 ! R7    R(3,13)                 1.43           estimate D2E/DX2                !
 ! R8    R(4,5)                  1.3948         estimate D2E/DX2                !
 ! R9    R(4,9)                  1.54           estimate D2E/DX2                !
 ! R10   R(5,6)                  1.3951         estimate D2E/DX2                !
 ! R11   R(5,8)                  1.0998         estimate D2E/DX2                !
 ! R12   R(6,15)                 1.54           estimate D2E/DX2                !
 ! R13   R(9,10)                 1.07           estimate D2E/DX2                !
 ! R14   R(9,11)                 1.07           estimate D2E/DX2                !
 ! R15   R(9,12)                 1.07           estimate D2E/DX2                !
 ! R16   R(13,14)                0.96           estimate D2E/DX2                !
 ! R17   R(15,16)                1.07           estimate D2E/DX2                !
 ! R18   R(15,17)                1.07           estimate D2E/DX2                !
 ! R19   R(15,18)                1.07           estimate D2E/DX2                !
 ! R20   R(19,20)                1.1198         estimate D2E/DX2                !
 ! R21   R(19,21)                1.5257         estimate D2E/DX2                !
 ! R22   R(19,22)                1.5257         estimate D2E/DX2                !
 ! R23   R(21,23)                1.1222         estimate D2E/DX2                !
 ! R24   R(21,24)                1.5257         estimate D2E/DX2                !
 ! R25   R(21,25)                1.5257         estimate D2E/DX2                !
 ! R26   R(22,26)                1.1222         estimate D2E/DX2                !
 ! R27   R(22,27)                1.5257         estimate D2E/DX2                !
 ! R28   R(22,28)                1.5257         estimate D2E/DX2                !
 ! R29   R(24,29)                1.1198         estimate D2E/DX2                !
 ! R30   R(24,30)                1.1198         estimate D2E/DX2                !
 ! R31   R(24,31)                1.5257         estimate D2E/DX2                !
 ! R32   R(25,32)                1.1198         estimate D2E/DX2                !
 ! R33   R(25,33)                1.1198         estimate D2E/DX2                !
 ! R34   R(25,34)                1.5257         estimate D2E/DX2                !
 ! R35   R(27,31)                1.5257         estimate D2E/DX2                !
 ! R36   R(27,35)                1.1198         estimate D2E/DX2                !
 ! R37   R(27,36)                1.1198         estimate D2E/DX2                !
 ! R38   R(28,34)                1.5257         estimate D2E/DX2                !
 ! R39   R(28,37)                1.1198         estimate D2E/DX2                !
 ! R40   R(28,38)                1.1198         estimate D2E/DX2                !
 ! R41   R(31,39)                1.1222         estimate D2E/DX2                !
 ! R42   R(31,40)                1.5257         estimate D2E/DX2                !
 ! R43   R(34,40)                1.5257         estimate D2E/DX2                !
 ! R44   R(34,41)                1.1222         estimate D2E/DX2                !
 ! R45   R(40,42)                1.1198         estimate D2E/DX2                !
 ! R46   R(40,43)                1.1198         estimate D2E/DX2                !
 ! A1    A(2,1,6)              119.9985         estimate D2E/DX2                !
 ! A2    A(2,1,7)              119.9972         estimate D2E/DX2                !
 ! A3    A(6,1,7)              120.0043         estimate D2E/DX2                !
 ! A4    A(1,2,3)              120.0086         estimate D2E/DX2                !
 ! A5    A(1,2,19)             119.9808         estimate D2E/DX2                !
 ! A6    A(3,2,19)             120.0105         estimate D2E/DX2                !
 ! A7    A(2,3,4)              119.9942         estimate D2E/DX2                !
 ! A8    A(2,3,13)             120.0128         estimate D2E/DX2                !
 ! A9    A(4,3,13)             119.993          estimate D2E/DX2                !
 ! A10   A(3,4,5)              119.994          estimate D2E/DX2                !
 ! A11   A(3,4,9)              119.9811         estimate D2E/DX2                !
 ! A12   A(5,4,9)              120.0249         estimate D2E/DX2                !
 ! A13   A(4,5,6)              120.0047         estimate D2E/DX2                !
 ! A14   A(4,5,8)              120.0113         estimate D2E/DX2                !
 ! A15   A(6,5,8)              119.984          estimate D2E/DX2                !
 ! A16   A(1,6,5)              120.0            estimate D2E/DX2                !
 ! A17   A(1,6,15)             120.008          estimate D2E/DX2                !
 ! A18   A(5,6,15)             119.992          estimate D2E/DX2                !
 ! A19   A(4,9,10)             109.4712         estimate D2E/DX2                !
 ! A20   A(4,9,11)             109.4712         estimate D2E/DX2                !
 ! A21   A(4,9,12)             109.4712         estimate D2E/DX2                !
 ! A22   A(10,9,11)            109.4713         estimate D2E/DX2                !
 ! A23   A(10,9,12)            109.4712         estimate D2E/DX2                !
 ! A24   A(11,9,12)            109.4712         estimate D2E/DX2                !
 ! A25   A(3,13,14)            109.5            estimate D2E/DX2                !
 ! A26   A(6,15,16)            109.4712         estimate D2E/DX2                !
 ! A27   A(6,15,17)            109.4712         estimate D2E/DX2                !
 ! A28   A(6,15,18)            109.4712         estimate D2E/DX2                !
 ! A29   A(16,15,17)           109.4713         estimate D2E/DX2                !
 ! A30   A(16,15,18)           109.4712         estimate D2E/DX2                !
 ! A31   A(17,15,18)           109.4712         estimate D2E/DX2                !
 ! A32   A(2,19,20)            108.0141         estimate D2E/DX2                !
 ! A33   A(2,19,21)            109.7939         estimate D2E/DX2                !
 ! A34   A(2,19,22)            109.8058         estimate D2E/DX2                !
 ! A35   A(20,19,21)           109.8048         estimate D2E/DX2                !
 ! A36   A(20,19,22)           109.808          estimate D2E/DX2                !
 ! A37   A(21,19,22)           109.5934         estimate D2E/DX2                !
 ! A38   A(19,21,23)           109.5328         estimate D2E/DX2                !
 ! A39   A(19,21,24)           109.4056         estimate D2E/DX2                !
 ! A40   A(19,21,25)           109.414          estimate D2E/DX2                !
 ! A41   A(23,21,24)           109.5334         estimate D2E/DX2                !
 ! A42   A(23,21,25)           109.5325         estimate D2E/DX2                !
 ! A43   A(24,21,25)           109.4089         estimate D2E/DX2                !
 ! A44   A(19,22,26)           109.533          estimate D2E/DX2                !
 ! A45   A(19,22,27)           109.4089         estimate D2E/DX2                !
 ! A46   A(19,22,28)           109.4101         estimate D2E/DX2                !
 ! A47   A(26,22,27)           109.5306         estimate D2E/DX2                !
 ! A48   A(26,22,28)           109.5339         estimate D2E/DX2                !
 ! A49   A(27,22,28)           109.4106         estimate D2E/DX2                !
 ! A50   A(21,24,29)           109.8044         estimate D2E/DX2                !
 ! A51   A(21,24,30)           109.8038         estimate D2E/DX2                !
 ! A52   A(21,24,31)           109.5952         estimate D2E/DX2                !
 ! A53   A(29,24,30)           108.0094         estimate D2E/DX2                !
 ! A54   A(29,24,31)           109.8036         estimate D2E/DX2                !
 ! A55   A(30,24,31)           109.8033         estimate D2E/DX2                !
 ! A56   A(21,25,32)           109.8037         estimate D2E/DX2                !
 ! A57   A(21,25,33)           109.803          estimate D2E/DX2                !
 ! A58   A(21,25,34)           109.5949         estimate D2E/DX2                !
 ! A59   A(32,25,33)           108.0098         estimate D2E/DX2                !
 ! A60   A(32,25,34)           109.805          estimate D2E/DX2                !
 ! A61   A(33,25,34)           109.8032         estimate D2E/DX2                !
 ! A62   A(22,27,31)           109.5943         estimate D2E/DX2                !
 ! A63   A(22,27,35)           109.8041         estimate D2E/DX2                !
 ! A64   A(22,27,36)           109.8052         estimate D2E/DX2                !
 ! A65   A(31,27,35)           109.8035         estimate D2E/DX2                !
 ! A66   A(31,27,36)           109.8039         estimate D2E/DX2                !
 ! A67   A(35,27,36)           108.0087         estimate D2E/DX2                !
 ! A68   A(22,28,34)           109.5951         estimate D2E/DX2                !
 ! A69   A(22,28,37)           109.8025         estimate D2E/DX2                !
 ! A70   A(22,28,38)           109.8044         estimate D2E/DX2                !
 ! A71   A(34,28,37)           109.803          estimate D2E/DX2                !
 ! A72   A(34,28,38)           109.806          estimate D2E/DX2                !
 ! A73   A(37,28,38)           108.0087         estimate D2E/DX2                !
 ! A74   A(24,31,27)           109.4088         estimate D2E/DX2                !
 ! A75   A(24,31,39)           109.5333         estimate D2E/DX2                !
 ! A76   A(24,31,40)           109.4099         estimate D2E/DX2                !
 ! A77   A(27,31,39)           109.5332         estimate D2E/DX2                !
 ! A78   A(27,31,40)           109.4083         estimate D2E/DX2                !
 ! A79   A(39,31,40)           109.5337         estimate D2E/DX2                !
 ! A80   A(25,34,28)           109.4083         estimate D2E/DX2                !
 ! A81   A(25,34,40)           109.408          estimate D2E/DX2                !
 ! A82   A(25,34,41)           109.5323         estimate D2E/DX2                !
 ! A83   A(28,34,40)           109.4113         estimate D2E/DX2                !
 ! A84   A(28,34,41)           109.5337         estimate D2E/DX2                !
 ! A85   A(40,34,41)           109.5335         estimate D2E/DX2                !
 ! A86   A(31,40,34)           109.5956         estimate D2E/DX2                !
 ! A87   A(31,40,42)           109.8055         estimate D2E/DX2                !
 ! A88   A(31,40,43)           109.8034         estimate D2E/DX2                !
 ! A89   A(34,40,42)           109.8045         estimate D2E/DX2                !
 ! A90   A(34,40,43)           109.8039         estimate D2E/DX2                !
 ! A91   A(42,40,43)           108.0069         estimate D2E/DX2                !
 ! D1    D(6,1,2,3)              0.0323         estimate D2E/DX2                !
 ! D2    D(6,1,2,19)           179.9532         estimate D2E/DX2                !
 ! D3    D(7,1,2,3)           -179.9729         estimate D2E/DX2                !
 ! D4    D(7,1,2,19)            -0.052          estimate D2E/DX2                !
 ! D5    D(2,1,6,5)              0.0149         estimate D2E/DX2                !
 ! D6    D(2,1,6,15)           179.9892         estimate D2E/DX2                !
 ! D7    D(7,1,6,5)           -179.9798         estimate D2E/DX2                !
 ! D8    D(7,1,6,15)            -0.0056         estimate D2E/DX2                !
 ! D9    D(1,2,3,4)             -0.0568         estimate D2E/DX2                !
 ! D10   D(1,2,3,13)           179.9619         estimate D2E/DX2                !
 ! D11   D(19,2,3,4)          -179.9777         estimate D2E/DX2                !
 ! D12   D(19,2,3,13)            0.041          estimate D2E/DX2                !
 ! D13   D(1,2,19,20)         -176.8527         estimate D2E/DX2                !
 ! D14   D(1,2,19,21)           63.432          estimate D2E/DX2                !
 ! D15   D(1,2,19,22)          -57.1267         estimate D2E/DX2                !
 ! D16   D(3,2,19,20)            3.0682         estimate D2E/DX2                !
 ! D17   D(3,2,19,21)         -116.6471         estimate D2E/DX2                !
 ! D18   D(3,2,19,22)          122.7942         estimate D2E/DX2                !
 ! D19   D(2,3,4,5)              0.0341         estimate D2E/DX2                !
 ! D20   D(2,3,4,9)           -179.9964         estimate D2E/DX2                !
 ! D21   D(13,3,4,5)          -179.9846         estimate D2E/DX2                !
 ! D22   D(13,3,4,9)            -0.0151         estimate D2E/DX2                !
 ! D23   D(2,3,13,14)          -30.5729         estimate D2E/DX2                !
 ! D24   D(4,3,13,14)          149.4458         estimate D2E/DX2                !
 ! D25   D(3,4,5,6)              0.0131         estimate D2E/DX2                !
 ! D26   D(3,4,5,8)           -179.9995         estimate D2E/DX2                !
 ! D27   D(9,4,5,6)           -179.9563         estimate D2E/DX2                !
 ! D28   D(9,4,5,8)              0.0311         estimate D2E/DX2                !
 ! D29   D(3,4,9,10)           -88.6005         estimate D2E/DX2                !
 ! D30   D(3,4,9,11)            31.3996         estimate D2E/DX2                !
 ! D31   D(3,4,9,12)           151.3995         estimate D2E/DX2                !
 ! D32   D(5,4,9,10)            91.369          estimate D2E/DX2                !
 ! D33   D(5,4,9,11)          -148.631          estimate D2E/DX2                !
 ! D34   D(5,4,9,12)           -28.631          estimate D2E/DX2                !
 ! D35   D(4,5,6,1)             -0.0376         estimate D2E/DX2                !
 ! D36   D(4,5,6,15)           179.9881         estimate D2E/DX2                !
 ! D37   D(8,5,6,1)            179.975          estimate D2E/DX2                !
 ! D38   D(8,5,6,15)             0.0007         estimate D2E/DX2                !
 ! D39   D(1,6,15,16)          121.8516         estimate D2E/DX2                !
 ! D40   D(1,6,15,17)         -118.1484         estimate D2E/DX2                !
 ! D41   D(1,6,15,18)            1.8516         estimate D2E/DX2                !
 ! D42   D(5,6,15,16)          -58.1741         estimate D2E/DX2                !
 ! D43   D(5,6,15,17)           61.8259         estimate D2E/DX2                !
 ! D44   D(5,6,15,18)         -178.1741         estimate D2E/DX2                !
 ! D45   D(2,19,21,23)          59.3165         estimate D2E/DX2                !
 ! D46   D(2,19,21,24)         -60.7571         estimate D2E/DX2                !
 ! D47   D(2,19,21,25)         179.3941         estimate D2E/DX2                !
 ! D48   D(20,19,21,23)        -59.2996         estimate D2E/DX2                !
 ! D49   D(20,19,21,24)       -179.3732         estimate D2E/DX2                !
 ! D50   D(20,19,21,25)         60.7781         estimate D2E/DX2                !
 ! D51   D(22,19,21,23)       -179.9963         estimate D2E/DX2                !
 ! D52   D(22,19,21,24)         59.9301         estimate D2E/DX2                !
 ! D53   D(22,19,21,25)        -59.9187         estimate D2E/DX2                !
 ! D54   D(2,19,22,26)         -59.3221         estimate D2E/DX2                !
 ! D55   D(2,19,22,27)          60.7504         estimate D2E/DX2                !
 ! D56   D(2,19,22,28)        -179.3992         estimate D2E/DX2                !
 ! D57   D(20,19,22,26)         59.3032         estimate D2E/DX2                !
 ! D58   D(20,19,22,27)        179.3756         estimate D2E/DX2                !
 ! D59   D(20,19,22,28)        -60.7739         estimate D2E/DX2                !
 ! D60   D(21,19,22,26)        179.998          estimate D2E/DX2                !
 ! D61   D(21,19,22,27)        -59.9296         estimate D2E/DX2                !
 ! D62   D(21,19,22,28)         59.9209         estimate D2E/DX2                !
 ! D63   D(19,21,24,29)        179.379          estimate D2E/DX2                !
 ! D64   D(19,21,24,30)         60.7628         estimate D2E/DX2                !
 ! D65   D(19,21,24,31)        -59.9287         estimate D2E/DX2                !
 ! D66   D(23,21,24,29)         59.3058         estimate D2E/DX2                !
 ! D67   D(23,21,24,30)        -59.3104         estimate D2E/DX2                !
 ! D68   D(23,21,24,31)        179.9981         estimate D2E/DX2                !
 ! D69   D(25,21,24,29)        -60.7691         estimate D2E/DX2                !
 ! D70   D(25,21,24,30)       -179.3853         estimate D2E/DX2                !
 ! D71   D(25,21,24,31)         59.9232         estimate D2E/DX2                !
 ! D72   D(19,21,25,32)        -60.773          estimate D2E/DX2                !
 ! D73   D(19,21,25,33)       -179.3888         estimate D2E/DX2                !
 ! D74   D(19,21,25,34)         59.9204         estimate D2E/DX2                !
 ! D75   D(23,21,25,32)         59.3048         estimate D2E/DX2                !
 ! D76   D(23,21,25,33)        -59.311          estimate D2E/DX2                !
 ! D77   D(23,21,25,34)        179.9983         estimate D2E/DX2                !
 ! D78   D(24,21,25,32)        179.3803         estimate D2E/DX2                !
 ! D79   D(24,21,25,33)         60.7645         estimate D2E/DX2                !
 ! D80   D(24,21,25,34)        -59.9263         estimate D2E/DX2                !
 ! D81   D(19,22,27,31)         59.9252         estimate D2E/DX2                !
 ! D82   D(19,22,27,35)        -60.7662         estimate D2E/DX2                !
 ! D83   D(19,22,27,36)       -179.3822         estimate D2E/DX2                !
 ! D84   D(26,22,27,31)        179.999          estimate D2E/DX2                !
 ! D85   D(26,22,27,35)         59.3076         estimate D2E/DX2                !
 ! D86   D(26,22,27,36)        -59.3083         estimate D2E/DX2                !
 ! D87   D(28,22,27,31)        -59.925          estimate D2E/DX2                !
 ! D88   D(28,22,27,35)        179.3836         estimate D2E/DX2                !
 ! D89   D(28,22,27,36)         60.7676         estimate D2E/DX2                !
 ! D90   D(19,22,28,34)        -59.9279         estimate D2E/DX2                !
 ! D91   D(19,22,28,37)         60.7624         estimate D2E/DX2                !
 ! D92   D(19,22,28,38)        179.377          estimate D2E/DX2                !
 ! D93   D(26,22,28,34)        179.9956         estimate D2E/DX2                !
 ! D94   D(26,22,28,37)        -59.3141         estimate D2E/DX2                !
 ! D95   D(26,22,28,38)         59.3004         estimate D2E/DX2                !
 ! D96   D(27,22,28,34)         59.9216         estimate D2E/DX2                !
 ! D97   D(27,22,28,37)       -179.3881         estimate D2E/DX2                !
 ! D98   D(27,22,28,38)        -60.7736         estimate D2E/DX2                !
 ! D99   D(21,24,31,27)         59.9257         estimate D2E/DX2                !
 ! D100  D(21,24,31,39)       -179.9987         estimate D2E/DX2                !
 ! D101  D(21,24,31,40)        -59.9217         estimate D2E/DX2                !
 ! D102  D(29,24,31,27)       -179.3815         estimate D2E/DX2                !
 ! D103  D(29,24,31,39)        -59.3059         estimate D2E/DX2                !
 ! D104  D(29,24,31,40)         60.7711         estimate D2E/DX2                !
 ! D105  D(30,24,31,27)        -60.7662         estimate D2E/DX2                !
 ! D106  D(30,24,31,39)         59.3095         estimate D2E/DX2                !
 ! D107  D(30,24,31,40)        179.3864         estimate D2E/DX2                !
 ! D108  D(21,25,34,28)        -59.9228         estimate D2E/DX2                !
 ! D109  D(21,25,34,40)         59.9268         estimate D2E/DX2                !
 ! D110  D(21,25,34,41)       -179.9982         estimate D2E/DX2                !
 ! D111  D(32,25,34,28)         60.7699         estimate D2E/DX2                !
 ! D112  D(32,25,34,40)       -179.3805         estimate D2E/DX2                !
 ! D113  D(32,25,34,41)        -59.3055         estimate D2E/DX2                !
 ! D114  D(33,25,34,28)        179.3866         estimate D2E/DX2                !
 ! D115  D(33,25,34,40)        -60.7638         estimate D2E/DX2                !
 ! D116  D(33,25,34,41)         59.3112         estimate D2E/DX2                !
 ! D117  D(22,27,31,24)        -59.9226         estimate D2E/DX2                !
 ! D118  D(22,27,31,39)       -179.9982         estimate D2E/DX2                !
 ! D119  D(22,27,31,40)         59.9259         estimate D2E/DX2                !
 ! D120  D(35,27,31,24)         60.7692         estimate D2E/DX2                !
 ! D121  D(35,27,31,39)        -59.3065         estimate D2E/DX2                !
 ! D122  D(35,27,31,40)       -179.3824         estimate D2E/DX2                !
 ! D123  D(36,27,31,24)        179.3841         estimate D2E/DX2                !
 ! D124  D(36,27,31,39)         59.3084         estimate D2E/DX2                !
 ! D125  D(36,27,31,40)        -60.7675         estimate D2E/DX2                !
 ! D126  D(22,28,34,25)         59.9276         estimate D2E/DX2                !
 ! D127  D(22,28,34,40)        -59.92           estimate D2E/DX2                !
 ! D128  D(22,28,34,41)       -179.9979         estimate D2E/DX2                !
 ! D129  D(37,28,34,25)        -60.7625         estimate D2E/DX2                !
 ! D130  D(37,28,34,40)        179.3899         estimate D2E/DX2                !
 ! D131  D(37,28,34,41)         59.3121         estimate D2E/DX2                !
 ! D132  D(38,28,34,25)       -179.3782         estimate D2E/DX2                !
 ! D133  D(38,28,34,40)         60.7742         estimate D2E/DX2                !
 ! D134  D(38,28,34,41)        -59.3037         estimate D2E/DX2                !
 ! D135  D(24,31,40,34)         59.9231         estimate D2E/DX2                !
 ! D136  D(24,31,40,42)       -179.3826         estimate D2E/DX2                !
 ! D137  D(24,31,40,43)        -60.7691         estimate D2E/DX2                !
 ! D138  D(27,31,40,34)        -59.9246         estimate D2E/DX2                !
 ! D139  D(27,31,40,42)         60.7696         estimate D2E/DX2                !
 ! D140  D(27,31,40,43)        179.3831         estimate D2E/DX2                !
 ! D141  D(39,31,40,34)        179.9998         estimate D2E/DX2                !
 ! D142  D(39,31,40,42)        -59.3059         estimate D2E/DX2                !
 ! D143  D(39,31,40,43)         59.3075         estimate D2E/DX2                !
 ! D144  D(25,34,40,31)        -59.9252         estimate D2E/DX2                !
 ! D145  D(25,34,40,42)        179.3799         estimate D2E/DX2                !
 ! D146  D(25,34,40,43)         60.7668         estimate D2E/DX2                !
 ! D147  D(28,34,40,31)         59.9226         estimate D2E/DX2                !
 ! D148  D(28,34,40,42)        -60.7723         estimate D2E/DX2                !
 ! D149  D(28,34,40,43)       -179.3854         estimate D2E/DX2                !
 ! D150  D(41,34,40,31)       -179.9994         estimate D2E/DX2                !
 ! D151  D(41,34,40,42)         59.3057         estimate D2E/DX2                !
 ! D152  D(41,34,40,43)        -59.3074         estimate D2E/DX2                !
 --------------------------------------------------------------------------------
 Trust Radius=3.00D-01 FncErr=1.00D-07 GrdErr=1.00D-06 EigMax=2.50D+02 EigMin=1.00D-04
 Number of steps in this run=    258 maximum allowed number of steps=    258.
 GradGradGradGradGradGradGradGradGradGradGradGradGradGradGradGradGradGrad

                          Input orientation:                          
 ---------------------------------------------------------------------
 Center     Atomic      Atomic             Coordinates (Angstroms)
 Number     Number       Type             X           Y           Z
 ---------------------------------------------------------------------
      1          6           0        1.382262   -0.147048    0.013826
      2          6           0        2.777420   -0.147046    0.016170
      3          6           0        3.474953    1.060705    0.018512
      4          6           0        2.777298    2.269214    0.017312
      5          6           0        1.382476    2.269134    0.014490
      6          6           0        0.684878    1.060927    0.013144
      7          1           0        0.832506   -1.099366    0.012430
      8          1           0        0.832353    3.221415    0.013536
      9          6           0        3.547797    3.602602    0.019815
     10          1           0        3.745073    3.898644    1.028944
     11          1           0        4.473097    3.480833   -0.503532
     12          1           0        2.960567    4.354775   -0.464227
     13          8           0        4.904949    1.060811    0.021738
     14          1           0        5.224423    0.281408    0.482246
     15          6           0       -0.855119    1.061181    0.010305
     16          1           0       -1.213277    1.593180    0.866810
     17          1           0       -1.210067    1.537594   -0.879606
     18          1           0       -1.212011    0.052945    0.041740
     19          6           0        3.546972   -1.480982    0.018011
     20          1           0        4.640921   -1.249582    0.078219
     21          6           0        3.251154   -2.249889   -1.266148
     22          6           0        3.128393   -2.317614    1.223248
     23          1           0        3.559462   -1.633666   -2.151930
     24          6           0        1.756750   -2.546676   -1.346465
     25          6           0        4.029193   -3.562280   -1.262084
     26          1           0        3.346440   -1.751163    2.167170
     27          6           0        1.634144   -2.614378    1.140102
     28          6           0        3.906663   -3.629881    1.224458
     29          1           0        1.530410   -3.101330   -2.292526
     30          1           0        1.179650   -1.587162   -1.361158
     31          6           0        1.336053   -3.384510   -0.142793
     32          1           0        5.127982   -3.351766   -1.214641
     33          1           0        3.825381   -4.127064   -2.207287
     34          6           0        3.611135   -4.401226   -0.058279
     35          1           0        1.055787   -1.655559    1.150086
     36          1           0        1.317430   -3.218974    2.027826
     37          1           0        5.004224   -3.419941    1.296569
     38          1           0        3.612645   -4.244534    2.113090
     39          1           0        0.236789   -3.602207   -0.202920
     40          6           0        2.116330   -4.695577   -0.139991
     41          1           0        4.184026   -5.366203   -0.056297
     42          1           0        1.804395   -5.320880    0.734997
     43          1           0        1.893596   -5.271613   -1.074060
 ---------------------------------------------------------------------
                    Distance matrix (angstroms):
                    1          2          3          4          5
     1  C    0.000000
     2  C    1.395160   0.000000
     3  C    2.416205   1.394712   0.000000
     4  C    2.790065   2.416260   1.395427   0.000000
     5  C    2.416183   2.789946   2.416356   1.394825   0.000000
     6  C    1.394829   2.416183   2.790080   2.416236   1.395138
     7  H    1.099610   2.165553   3.412986   3.889675   3.413102
     8  H    3.413055   3.889707   3.413506   2.165528   1.099761
     9  C    4.330065   3.827971   2.542941   1.540000   2.542987
    10  H    4.793847   4.281317   3.024539   2.148263   3.044058
    11  H    4.794001   4.038182   2.669427   2.148263   3.359836
    12  H    4.794372   4.531084   3.368757   2.148263   2.658842
    13  O    3.724019   2.446494   1.430000   2.446867   3.723965
    14  H    3.894252   2.527573   1.970533   3.186841   4.350909
    15  C    2.542775   3.828209   4.330080   3.828035   2.542833
    16  H    3.239259   4.435948   4.794021   4.135621   2.814480
    17  H    3.218138   4.420462   4.794106   4.151965   2.838281
    18  H    2.602120   3.994522   4.794137   4.563665   3.412272
    19  C    2.542709   1.540000   2.542708   3.828364   4.329946
    20  H    3.440725   2.166119   2.588527   3.982301   4.796133
    21  C    3.090798   2.508129   3.558155   4.721663   5.055053
    22  C    3.036944   2.508303   3.603406   4.755685   5.054461
    23  H    3.411852   2.742679   3.460866   4.533196   4.966336
    24  C    2.783675   2.942237   4.222390   5.108248   5.018396
    25  C    4.505331   3.855476   4.828986   6.100034   6.529943
    26  H    3.326871   2.742951   3.541165   4.594480   4.965277
    27  C    2.723904   2.942453   4.260607   5.139740   5.017871
    28  C    4.468596   3.855553   4.862333   6.126336   6.529466
    29  H    3.750865   3.951316   5.142439   5.977694   5.846888
    30  H    2.001390   2.554180   3.766047   4.395941   4.099338
    31  C    3.241577   3.547390   4.935671   5.836730   5.656022
    32  H    5.080332   4.160561   4.870634   6.216015   6.865428
    33  H    5.171334   4.677876   5.655964   6.852714   7.198293
    34  C    4.803239   4.335743   5.464168   6.722780   7.033201
    35  H    1.916579   2.554486   3.809320   4.432902   4.098722
    36  H    3.673844   3.951591   5.196913   6.024416   5.846117
    37  H    5.047362   4.160519   4.903906   6.241969   6.864864
    38  H    5.115751   4.678043   5.705417   6.893403   7.197614
    39  H    3.646534   4.294292   5.681329   6.401272   5.986027
    40  C    4.609949   4.598973   5.916567   6.997852   7.004970
    41  H    5.924050   5.405866   6.466338   7.764270   8.133392
    42  H    5.240879   5.313383   6.635416   7.685775   7.635801
    43  H    5.263661   5.313279   6.617602   7.670469   7.636037
                    6          7          8          9         10
     6  C    0.000000
     7  H    2.165331   0.000000
     8  H    2.165516   4.320781   0.000000
     9  C    3.828376   5.429675   2.742076   0.000000
    10  H    4.295263   5.873369   3.158106   1.070000   0.000000
    11  H    4.524765   5.873529   3.686417   1.070000   1.747303
    12  H    4.031883   5.873969   2.458060   1.070000   1.747303
    13  O    4.220080   4.609908   4.610240   2.881418   3.226930
    14  H    4.629814   4.627764   5.305997   3.749033   3.946106
    15  C    1.540000   2.741541   2.741201   5.083757   5.500054
    16  H    2.148263   3.487836   2.750242   5.236698   5.470529
    17  H    2.148263   3.452737   2.793642   5.264076   5.811243
    18  H    2.148263   2.347068   3.770865   5.937704   6.351115
    19  C    3.827912   2.741166   5.429707   5.083585   5.477373
    20  H    4.581808   3.811944   5.873600   4.974135   5.311370
    21  C    4.379938   2.967882   6.117463   5.999446   6.581479
    22  C    4.341619   2.867282   6.116865   6.055833   6.249793
    23  H    4.495732   3.522247   5.974795   5.668785   6.384268
    24  C    4.001530   2.189869   5.997914   6.548908   7.151094
    25  C    5.846768   4.231920   7.606938   7.294556   7.809925
    26  H    4.430755   3.374553   5.973718   5.771870   5.777092
    27  C    3.959672   2.051713   5.997374   6.600602   6.847469
    28  C    5.818149   4.162086   7.606442   7.340897   7.532797
    29  H    4.832744   3.131733   6.766262   7.372888   8.058321
    30  H    3.024216   1.498399   5.013264   5.869316   6.510612
    31  C    4.495581   2.345109   6.626945   7.330620   7.760198
    32  H    6.381261   5.003012   7.947802   7.237687   7.714568
    33  H    6.458198   4.801187   8.239564   8.048899   8.653995
    34  C    6.197031   4.316023   8.113657   8.004460   8.371848
    35  H    2.968081   1.285871   5.012638   5.927553   6.172205
    36  H    4.772486   2.964745   6.765447   7.452553   7.586284
    37  H    6.354691   4.943411   7.947218   7.284737   7.430933
    38  H    6.413229   4.694042   8.238844   8.121795   8.216098
    39  H    4.689593   2.581757   6.852983   7.932318   8.371877
    40  C    5.933788   3.821540   8.021903   8.422257   8.824956
    41  H    7.318255   5.426169   9.218772   8.991665   9.338513
    42  H    6.519344   4.391793   8.627640   9.120278   9.426148
    43  H    6.537895   4.440047   8.627898   9.093110   9.588755
                   11         12         13         14         15
    11  H    0.000000
    12  H    1.747303   0.000000
    13  O    2.513745   3.855773   0.000000
    14  H    3.431118   4.755332   0.960000   0.000000
    15  C    5.874405   5.062846   5.760080   6.147488   0.000000
    16  H    6.146212   5.178711   6.199214   6.581232   1.070000
    17  H    6.017970   5.050073   6.199449   6.695918   1.070000
    18  H    6.660945   6.014329   6.199468   6.455535   1.070000
    19  C    5.074379   5.884938   2.881810   2.476969   5.083411
    20  H    4.769006   5.875939   2.326116   1.687496   5.962440
    21  C    5.908968   6.659512   3.918472   3.654878   5.427153
    22  C    6.197740   6.884513   4.001691   3.420138   5.362448
    23  H    5.450692   6.250476   3.714213   3.657661   5.605889
    24  C    6.664828   7.060987   4.979668   4.833942   4.656105
    25  C    7.097739   8.028593   4.877306   4.386935   6.844843
    26  H    5.981286   6.660003   3.865104   3.239928   5.496767
    27  C    6.921905   7.273401   5.045385   4.659233   4.580677
    28  C    7.339554   8.215929   4.944259   4.193513   6.793732
    29  H    7.428646   7.809067   5.836673   5.726081   5.321680
    30  H    6.104662   6.267597   4.775146   4.821813   3.610390
    31  C    7.556726   7.914474   5.703066   5.380432   4.958714
    32  H    6.900649   8.040621   4.587942   4.011069   7.534726
    33  H    7.823197   8.702170   5.748745   5.350283   7.330940
    34  C    7.941541   8.789516   5.613751   4.982161   7.056204
    35  H    6.387095   6.508326   4.844366   4.644931   3.511600
    36  H    7.826456   8.140756   5.933906   5.468646   5.206735
    37  H    7.151443   8.229407   4.659633   3.796260   7.487779
    38  H    8.201731   9.000883   5.847264   5.073621   7.247981
    39  H    8.258700   8.414323   6.601964   6.358334   4.794259
    40  C    8.517052   9.095424   6.398324   5.900660   6.480151
    41  H    8.863048   9.806155   6.467791   5.767838   8.167538
    42  H    9.280413   9.818002   7.130789   6.568569   6.951899
    43  H    9.142464   9.704519   7.097085   6.659770   6.988245
                   16         17         18         19         20
    16  H    0.000000
    17  H    1.747303   0.000000
    18  H    1.747303   1.747303   0.000000
    19  C    5.729826   5.704993   5.000142   0.000000
    20  H    6.555517   6.551324   5.996226   1.119775   0.000000
    21  C    6.264969   5.864890   5.189745   1.525710   2.177014
    22  C    5.854183   6.173076   5.084743   1.525698   2.177045
    23  H    6.504181   5.867207   5.515777   2.175342   2.508115
    24  C    5.555002   5.069638   4.183142   2.490460   3.468518
    25  C    7.654702   7.321534   6.499233   2.490579   2.742115
    26  H    5.802292   6.392225   5.343383   2.175338   2.508183
    27  C    5.087832   5.422880   4.052358   2.490499   3.468569
    28  C    7.322709   7.570391   6.415828   2.490513   2.742047
    29  H    6.288692   5.570115   4.787392   3.468520   4.327202
    30  H    4.561197   3.963174   3.221508   2.741824   3.763797
    31  C    5.682938   5.590415   4.282847   2.921889   3.940674
    32  H    8.306413   8.011802   7.305208   2.742053   2.515531
    33  H    8.219448   7.694597   6.921410   3.468604   3.764113
    34  C    7.750074   7.693384   6.566002   2.921944   3.318426
    35  H    3.972808   4.410212   3.048003   2.741911   3.763895
    36  H    5.559611   6.120977   4.587818   3.468548   4.327247
    37  H    7.998337   8.241985   7.230291   2.741870   2.515318
    38  H    7.676044   8.102333   6.784993   3.468557   3.764013
    39  H    5.499006   5.382273   3.939418   3.937730   5.001027
    40  C    7.186682   7.103828   5.801667   3.522118   4.277389
    41  H    8.855282   8.799801   7.648136   3.937804   4.144082
    42  H    7.545061   7.663719   6.201395   4.277319   5.005268
    43  H    7.781068   7.485710   6.264242   4.277284   5.005225
                   21         22         23         24         25
    21  C    0.000000
    22  C    2.493341   0.000000
    23  H    1.122227   3.470653   0.000000
    24  C    1.525705   2.921865   2.175346   0.000000
    25  C    1.525691   2.921902   2.175322   2.490496   0.000000
    26  H    3.470660   1.122230   4.325946   3.937713   3.937776
    27  C    2.921920   1.525700   3.937781   2.490508   3.522113
    28  C    2.921847   1.525697   3.937692   3.522088   2.490477
    29  H    2.177008   3.940612   2.508158   1.119778   2.741934
    30  H    2.177008   3.318179   2.508184   1.119789   3.468545
    31  C    2.493372   2.493354   3.470682   1.525706   2.921886
    32  H    2.176987   3.318302   2.508114   3.468538   1.119779
    33  H    2.176985   3.940618   2.508149   2.741874   1.119789
    34  C    2.493348   2.493349   3.470653   2.921904   1.525697
    35  H    3.318291   2.177008   4.143933   2.741934   4.277300
    36  H    3.940645   2.177012   5.001027   3.468548   4.277269
    37  H    3.318102   2.176980   4.143701   4.277184   2.741834
    38  H    3.940627   2.177003   5.000986   4.277334   3.468542
    39  H    3.470680   3.470664   4.325962   2.175344   3.937735
    40  C    2.921890   2.921882   3.937743   2.490512   2.490482
    41  H    3.470649   3.470662   4.325920   3.937757   2.175323
    42  H    3.940645   3.318277   5.001015   3.468568   3.468535
    43  H    3.318235   3.940616   4.143860   2.741937   2.741888
                   26         27         28         29         30
    26  H    0.000000
    27  C    2.175308   0.000000
    28  C    2.175347   2.490523   0.000000
    29  H    5.000980   3.468547   4.277279   0.000000
    30  H    4.143788   2.741904   4.277232   1.811955   0.000000
    31  C    3.470649   1.525707   2.921919   2.176998   2.177001
    32  H    4.143967   4.277320   2.741929   3.763918   4.327196
    33  H    5.001016   4.277236   3.468526   2.515211   3.763898
    34  C    3.470665   2.921889   1.525688   3.318283   3.940630
    35  H    2.508126   1.119790   3.468569   3.763921   2.515227
    36  H    2.508140   1.119776   2.741964   4.327198   3.763909
    37  H    2.508188   3.468552   1.119784   5.005047   5.004993
    38  H    2.508125   2.742003   1.119782   5.005204   5.005147
    39  H    4.325925   2.175344   3.937785   2.508144   2.508168
    40  C    3.937732   2.490488   2.490526   2.741957   3.468553
    41  H    4.325953   3.937742   2.175334   4.143916   5.001008
    42  H    4.143899   2.741943   2.742002   3.763956   4.327218
    43  H    5.000990   3.468534   3.468560   2.515292   3.763950
                   31         32         33         34         35
    31  C    0.000000
    32  H    3.940642   0.000000
    33  H    3.318173   1.811962   0.000000
    34  C    2.493361   2.177009   2.176993   0.000000
    35  H    2.177006   5.005180   5.005091   3.940639   0.000000
    36  H    2.177001   5.005151   5.005060   3.318227   1.811947
    37  H    3.940621   2.515182   3.763868   2.176978   4.327200
    38  H    3.318361   3.763918   4.327206   2.177016   3.764000
    39  H    1.122226   5.001008   4.143785   3.470672   2.508152
    40  C    1.525692   3.468537   2.741855   1.525699   3.468539
    41  H    3.470668   2.508140   2.508156   1.122225   5.001012
    42  H    2.177013   4.327208   3.763856   2.177007   3.763946
    43  H    2.176987   3.763885   2.515152   2.176999   4.327193
                   36         37         38         39         40
    36  H    0.000000
    37  H    3.763983   0.000000
    38  H    2.515363   1.811947   0.000000
    39  H    2.508164   5.001013   4.144019   0.000000
    40  C    2.741902   3.468556   2.742038   2.175338   0.000000
    41  H    4.143855   2.508169   2.508159   4.325952   2.175341
    42  H    2.515263   3.764019   2.515438   2.508170   1.119783
    43  H    3.763906   4.327191   3.764033   2.508149   1.119783
                   41         42         43
    41  H    0.000000
    42  H    2.508156   0.000000
    43  H    2.508158   1.811925   0.000000
 Stoichiometry    C18H24O
 Framework group  C1[X(C18H24O)]
 Deg. of freedom   123
 Full point group                 C1      NOp   1
 Largest Abelian subgroup         C1      NOp   1
 Largest concise Abelian subgroup C1      NOp   1
                         Standard orientation:                         
 ---------------------------------------------------------------------
 Center     Atomic      Atomic             Coordinates (Angstroms)
 Number     Number       Type             X           Y           Z
 ---------------------------------------------------------------------
      1          6           0        0.993156    1.063619    0.027671
      2          6           0        0.838670   -0.322955    0.023351
      3          6           0        1.961621   -1.149862    0.002697
      4          6           0        3.239797   -0.590242   -0.014847
      5          6           0        3.394161    0.796009   -0.011005
      6          6           0        2.270780    1.623025    0.010651
      7          1           0        0.107682    1.715386    0.044406
      8          1           0        4.401381    1.237361   -0.024837
      9          6           0        4.479518   -1.503571   -0.037733
     10          1           0        4.767647   -1.739002    0.965489
     11          1           0        4.247836   -2.406264   -0.563441
     12          1           0        5.284434   -1.000031   -0.531147
     13          8           0        1.803393   -2.571077   -0.000908
     14          1           0        1.000705   -2.805343    0.470698
     15          6           0        2.441555    3.153520    0.015164
     16          1           0        3.023290    3.444986    0.864594
     17          1           0        2.940362    3.459385   -0.880681
     18          1           0        1.479667    3.619585    0.064714
     19          6           0       -0.572100   -0.940153    0.043235
     20          1           0       -0.462373   -2.053361    0.094442
     21          6           0       -1.323517   -0.552655   -1.226808
     22          6           0       -1.338255   -0.439459    1.263919
     23          1           0       -0.759174   -0.921457   -2.123967
     24          6           0       -1.454181    0.965908   -1.295144
     25          6           0       -2.713783   -1.180687   -1.205092
     26          1           0       -0.784735   -0.725032    2.197441
     27          6           0       -1.468958    1.078966    1.192753
     28          6           0       -2.728467   -1.067715    1.282778
     29          1           0       -1.995094    1.258430   -2.230957
     30          1           0       -0.437002    1.433360   -1.322701
     31          6           0       -2.221322    1.468849   -0.075994
     32          1           0       -2.625547   -2.296310   -1.166331
     33          1           0       -3.267243   -0.909437   -2.139990
     34          6           0       -3.482317   -0.680245    0.014195
     35          1           0       -0.451943    1.547583    1.189887
     36          1           0       -2.020787    1.454822    2.091706
     37          1           0       -2.640279   -2.182216    1.346219
     38          1           0       -3.292789   -0.713307    2.182693
     39          1           0       -2.316842    2.585824   -0.127320
     40          6           0       -3.610538    0.838455   -0.055574
     41          1           0       -4.504659   -1.142826    0.029152
     42          1           0       -4.183672    1.211938    0.830959
     43          1           0       -4.172911    1.129683   -0.979066
 ---------------------------------------------------------------------
 Rotational constants (GHZ):           0.7374705           0.2869342           0.2357438
 Standard basis: 6-31G(d) (6D, 7F)
 There are   333 symmetry adapted cartesian basis functions of A   symmetry.
 There are   333 symmetry adapted basis functions of A   symmetry.
   333 basis functions,   628 primitive gaussians,   333 cartesian basis functions
    70 alpha electrons       70 beta electrons
       nuclear repulsion energy      1545.0128832680 Hartrees.
 NAtoms=   43 NActive=   43 NUniq=   43 SFac= 1.00D+00 NAtFMM=   60 NAOKFM=F Big=F
 Integral buffers will be    131072 words long.
 Raffenetti 2 integral format.
 Two-electron integral symmetry is turned on.
 ------------------------------------------------------------------------------
 Polarizable Continuum Model (PCM)
 =================================
 Model                : PCM.
 Atomic radii         : SMD-Coulomb.
 Polarization charges : Total charges.
 Charge compensation  : None.
 Solution method      : On-the-fly selection.
 Cavity type          : VdW (van der Waals Surface) (Alpha=1.000).
 Cavity algorithm     : GePol (No added spheres)
                        Default sphere list used, NSphG=   43.
                        Lebedev-Laikov grids with approx.  5.0 points / Ang**2.
                        Smoothing algorithm: York/Karplus (Gamma=1.0000).
                        Polarization charges: spherical gaussians, with
                                              point-specific exponents (IZeta= 3).
                        Self-potential: point-specific (ISelfS= 7).
                        Self-field    : sphere-specific E.n sum rule (ISelfD= 2).
 1st derivatives      : Analytical E(r).r(x)/FMM algorithm (CHGder, D1EAlg=3).
                        Cavity 1st derivative terms included.
 Solvent              : Toluene, Eps=   2.374100 Eps(inf)=   2.238315
 ------------------------------------------------------------------------------
 ------------------------------------------------------------------------------
 Atomic radii for non-electrostatic terms: SMD-CDS.
 ------------------------------------------------------------------------------
 Nuclear repulsion after PCM non-electrostatic terms =     1545.0008946723 Hartrees.
 One-electron integrals computed using PRISM.
 NBasis=   333 RedAO= T EigKep=  3.05D-04  NBF=   333
 NBsUse=   333 1.00D-06 EigRej= -1.00D+00 NBFU=   333
 ExpMin= 1.61D-01 ExpMax= 5.48D+03 ExpMxC= 8.25D+02 IAcc=3 IRadAn=         5 AccDes= 0.00D+00
 Harris functional with IExCor=  402 and IRadAn=       5 diagonalized for initial guess.
 HarFok:  IExCor=  402 AccDes= 0.00D+00 IRadAn=         5 IDoV= 1 UseB2=F ITyADJ=14
 ICtDFT=  3500011 ScaDFX=  1.000000  1.000000  1.000000  1.000000
 FoFCou: FMM=F IPFlag=           0 FMFlag=      100000 FMFlg1=           0
         NFxFlg=           0 DoJE=T BraDBF=F KetDBF=T FulRan=T
         wScrn=  0.000000 ICntrl=       500 IOpCl=  0 I1Cent=   200000004 NGrid=           0
         NMat0=    1 NMatS0=      1 NMatT0=    0 NMatD0=    1 NMtDS0=    0 NMtDT0=    0
 Petite list used in FoFCou.
 Requested convergence on RMS density matrix=1.00D-08 within 128 cycles.
 Requested convergence on MAX density matrix=1.00D-06.
 Requested convergence on             energy=1.00D-06.
 No special actions if energy rises.
 Inv3:  Mode=1 IEnd=    21099312.
 Iteration    1 A*A^-1 deviation from unit magnitude is 5.11D-15 for   2649.
 Iteration    1 A*A^-1 deviation from orthogonality  is 2.36D-15 for   2151    947.
 Iteration    1 A^-1*A deviation from unit magnitude is 5.11D-15 for   2649.
 Iteration    1 A^-1*A deviation from orthogonality  is 1.67D-15 for   2644   2504.
 Error on total polarization charges =  0.03441
 SCF Done:  E(RB3LYP) =  -775.562322460     A.U. after   12 cycles
            NFock= 12  Conv=0.89D-08     -V/T= 2.0092
 SMD-CDS (non-electrostatic) energy       (kcal/mol) =      -7.52
 (included in total energy above)

 **********************************************************************

            Population analysis using the SCF Density.

 **********************************************************************

 Orbital symmetries:
       Occupied  (A) (A) (A) (A) (A) (A) (A) (A) (A) (A) (A) (A)
                 (A) (A) (A) (A) (A) (A) (A) (A) (A) (A) (A) (A)
                 (A) (A) (A) (A) (A) (A) (A) (A) (A) (A) (A) (A)
                 (A) (A) (A) (A) (A) (A) (A) (A) (A) (A) (A) (A)
                 (A) (A) (A) (A) (A) (A) (A) (A) (A) (A) (A) (A)
                 (A) (A) (A) (A) (A) (A) (A) (A) (A) (A)
       Virtual   (A) (A) (A) (A) (A) (A) (A) (A) (A) (A) (A) (A)
                 (A) (A) (A) (A) (A) (A) (A) (A) (A) (A) (A) (A)
                 (A) (A) (A) (A) (A) (A) (A) (A) (A) (A) (A) (A)
                 (A) (A) (A) (A) (A) (A) (A) (A) (A) (A) (A) (A)
                 (A) (A) (A) (A) (A) (A) (A) (A) (A) (A) (A) (A)
                 (A) (A) (A) (A) (A) (A) (A) (A) (A) (A) (A) (A)
                 (A) (A) (A) (A) (A) (A) (A) (A) (A) (A) (A) (A)
                 (A) (A) (A) (A) (A) (A) (A) (A) (A) (A) (A) (A)
                 (A) (A) (A) (A) (A) (A) (A) (A) (A) (A) (A) (A)
                 (A) (A) (A) (A) (A) (A) (A) (A) (A) (A) (A) (A)
                 (A) (A) (A) (A) (A) (A) (A) (A) (A) (A) (A) (A)
                 (A) (A) (A) (A) (A) (A) (A) (A) (A) (A) (A) (A)
                 (A) (A) (A) (A) (A) (A) (A) (A) (A) (A) (A) (A)
                 (A) (A) (A) (A) (A) (A) (A) (A) (A) (A) (A) (A)
                 (A) (A) (A) (A) (A) (A) (A) (A) (A) (A) (A) (A)
                 (A) (A) (A) (A) (A) (A) (A) (A) (A) (A) (A) (A)
                 (A) (A) (A) (A) (A) (A) (A) (A) (A) (A) (A) (A)
                 (A) (A) (A) (A) (A) (A) (A) (A) (A) (A) (A) (A)
                 (A) (A) (A) (A) (A) (A) (A) (A) (A) (A) (A) (A)
                 (A) (A) (A) (A) (A) (A) (A) (A) (A) (A) (A) (A)
                 (A) (A) (A) (A) (A) (A) (A) (A) (A) (A) (A) (A)
                 (A) (A) (A) (A) (A) (A) (A) (A) (A) (A) (A)
 The electronic state is 1-A.
 Alpha  occ. eigenvalues --  -19.15891 -10.23246 -10.18738 -10.18602 -10.18222
 Alpha  occ. eigenvalues --  -10.18189 -10.17946 -10.17822 -10.17672 -10.17632
 Alpha  occ. eigenvalues --  -10.17471 -10.17267 -10.17176 -10.17119 -10.16879
 Alpha  occ. eigenvalues --  -10.16699 -10.16445 -10.16351 -10.16297  -1.02613
 Alpha  occ. eigenvalues --   -0.87949  -0.84601  -0.78635  -0.77131  -0.76435
 Alpha  occ. eigenvalues --   -0.76190  -0.73385  -0.68216  -0.67881  -0.66239
 Alpha  occ. eigenvalues --   -0.65651  -0.59374  -0.58328  -0.57586  -0.56512
 Alpha  occ. eigenvalues --   -0.55696  -0.52839  -0.51509  -0.47832  -0.45987
 Alpha  occ. eigenvalues --   -0.44713  -0.44430  -0.43783  -0.42919  -0.42288
 Alpha  occ. eigenvalues --   -0.41533  -0.40992  -0.40845  -0.40011  -0.39623
 Alpha  occ. eigenvalues --   -0.39469  -0.38611  -0.38406  -0.37792  -0.37283
 Alpha  occ. eigenvalues --   -0.36371  -0.35052  -0.33699  -0.32883  -0.32308
 Alpha  occ. eigenvalues --   -0.31898  -0.31750  -0.31402  -0.31175  -0.30285
 Alpha  occ. eigenvalues --   -0.27535  -0.27298  -0.25157  -0.22817  -0.20940
 Alpha virt. eigenvalues --    0.00662   0.02176   0.05936   0.08301   0.10094
 Alpha virt. eigenvalues --    0.12414   0.12603   0.12706   0.13408   0.13844
 Alpha virt. eigenvalues --    0.14042   0.14679   0.14920   0.15759   0.16275
 Alpha virt. eigenvalues --    0.17495   0.17905   0.18254   0.19413   0.19499
 Alpha virt. eigenvalues --    0.19565   0.19924   0.20234   0.20811   0.21393
 Alpha virt. eigenvalues --    0.21511   0.22563   0.22734   0.24088   0.24412
 Alpha virt. eigenvalues --    0.25207   0.25721   0.25998   0.26515   0.27546
 Alpha virt. eigenvalues --    0.28159   0.28525   0.29125   0.30052   0.31125
 Alpha virt. eigenvalues --    0.32243   0.33212   0.33946   0.35753   0.37675
 Alpha virt. eigenvalues --    0.40106   0.40510   0.47674   0.49690   0.52449
 Alpha virt. eigenvalues --    0.52596   0.52852   0.53641   0.55131   0.55441
 Alpha virt. eigenvalues --    0.55808   0.56750   0.57208   0.57630   0.58711
 Alpha virt. eigenvalues --    0.59279   0.59717   0.61398   0.62484   0.63167
 Alpha virt. eigenvalues --    0.64026   0.64060   0.64723   0.66145   0.66827
 Alpha virt. eigenvalues --    0.67652   0.68452   0.70080   0.70635   0.71502
 Alpha virt. eigenvalues --    0.72639   0.73079   0.73887   0.74020   0.74775
 Alpha virt. eigenvalues --    0.75933   0.76687   0.77089   0.78643   0.79122
 Alpha virt. eigenvalues --    0.79734   0.80635   0.81749   0.83337   0.84376
 Alpha virt. eigenvalues --    0.84796   0.85932   0.86387   0.86560   0.87053
 Alpha virt. eigenvalues --    0.87294   0.87463   0.89370   0.89718   0.90230
 Alpha virt. eigenvalues --    0.91302   0.92284   0.92368   0.92912   0.93438
 Alpha virt. eigenvalues --    0.94139   0.94638   0.94964   0.96469   0.97082
 Alpha virt. eigenvalues --    0.98359   0.98762   0.99784   1.00263   1.01080
 Alpha virt. eigenvalues --    1.03079   1.05472   1.06232   1.08549   1.10263
 Alpha virt. eigenvalues --    1.11460   1.13694   1.14964   1.16305   1.18503
 Alpha virt. eigenvalues --    1.20521   1.21174   1.22722   1.23733   1.24818
 Alpha virt. eigenvalues --    1.26677   1.28950   1.30257   1.30650   1.31879
 Alpha virt. eigenvalues --    1.34381   1.37917   1.39972   1.41473   1.43511
 Alpha virt. eigenvalues --    1.44915   1.45131   1.46902   1.47898   1.51727
 Alpha virt. eigenvalues --    1.52409   1.54378   1.57910   1.61067   1.65241
 Alpha virt. eigenvalues --    1.65557   1.67208   1.68356   1.71503   1.72312
 Alpha virt. eigenvalues --    1.72984   1.73615   1.77120   1.78198   1.78555
 Alpha virt. eigenvalues --    1.79767   1.80119   1.81352   1.82142   1.83117
 Alpha virt. eigenvalues --    1.84228   1.85633   1.86951   1.88320   1.89450
 Alpha virt. eigenvalues --    1.90094   1.90976   1.91723   1.93917   1.94261
 Alpha virt. eigenvalues --    1.95989   1.97536   1.98914   2.00827   2.02866
 Alpha virt. eigenvalues --    2.03930   2.07035   2.07269   2.08210   2.09989
 Alpha virt. eigenvalues --    2.10190   2.11271   2.14820   2.16723   2.17298
 Alpha virt. eigenvalues --    2.17880   2.19019   2.19648   2.21435   2.22184
 Alpha virt. eigenvalues --    2.25328   2.25414   2.27043   2.27123   2.27916
 Alpha virt. eigenvalues --    2.30488   2.31646   2.31999   2.33236   2.33937
 Alpha virt. eigenvalues --    2.34493   2.36821   2.38628   2.39556   2.40218
 Alpha virt. eigenvalues --    2.41997   2.42596   2.43510   2.45418   2.46685
 Alpha virt. eigenvalues --    2.48800   2.49977   2.50968   2.52894   2.55087
 Alpha virt. eigenvalues --    2.56608   2.61477   2.64839   2.66644   2.69195
 Alpha virt. eigenvalues --    2.69933   2.71539   2.73276   2.74416   2.75795
 Alpha virt. eigenvalues --    2.76451   2.76543   2.77184   2.79532   2.83295
 Alpha virt. eigenvalues --    2.84465   2.85448   2.89078   2.90997   2.91471
 Alpha virt. eigenvalues --    2.93785   3.10915   3.20275   3.44154   4.01546
 Alpha virt. eigenvalues --    4.12328   4.16480   4.18933   4.24058   4.27079
 Alpha virt. eigenvalues --    4.29791   4.32660   4.33346   4.38137   4.45300
 Alpha virt. eigenvalues --    4.50274   4.52763   4.62511   4.69522   4.82802
 Alpha virt. eigenvalues --    4.83540   4.86723   4.89268
          Condensed to atoms (all electrons):
               1          2          3          4          5          6
     1  C    5.279855   0.450071  -0.033885  -0.049713  -0.044121   0.532495
     2  C    0.450071   5.005960   0.465111  -0.048051  -0.053538  -0.024232
     3  C   -0.033885   0.465111   4.787775   0.491872  -0.027202  -0.047536
     4  C   -0.049713  -0.048051   0.491872   4.801592   0.535883  -0.007335
     5  C   -0.044121  -0.053538  -0.027202   0.535883   5.077821   0.525264
     6  C    0.532495  -0.024232  -0.047536  -0.007335   0.525264   4.700807
     7  H    0.375052  -0.065142   0.000815   0.000856   0.005048  -0.024422
     8  H    0.006281   0.000046   0.005268  -0.047073   0.359098  -0.049146
     9  C    0.000705   0.009207  -0.044671   0.325365  -0.064492   0.005716
    10  H    0.000018  -0.000243  -0.002531  -0.024206  -0.001033  -0.000144
    11  H   -0.000031   0.000236  -0.006020  -0.025833   0.002478  -0.000117
    12  H    0.000012  -0.000167   0.003192  -0.028892  -0.002624   0.000089
    13  O    0.004535  -0.073974   0.279739  -0.061027   0.003608  -0.000063
    14  H    0.000051  -0.009960  -0.020712   0.004346  -0.000087  -0.000010
    15  C   -0.037628   0.006975   0.001459   0.004681  -0.063428   0.333830
    16  H    0.000025  -0.000187   0.000000   0.000077  -0.002302  -0.026816
    17  H    0.000214  -0.000192   0.000019  -0.000068  -0.002624  -0.026297
    18  H   -0.003821   0.000213  -0.000030  -0.000122   0.003649  -0.029407
    19  C   -0.051727   0.310060  -0.031429   0.007360   0.001144   0.005097
    20  H    0.007323  -0.049560  -0.012736   0.000665  -0.000030  -0.000042
    21  C   -0.009391  -0.036487   0.001295  -0.000161   0.000004   0.000018
    22  C   -0.007787  -0.034794   0.000175  -0.000185   0.000004   0.000142
    23  H   -0.000063  -0.002510   0.001023  -0.000056  -0.000017  -0.000036
    24  C   -0.025300  -0.016202  -0.000187   0.000004  -0.000015   0.000413
    25  C    0.000272   0.004596  -0.000069   0.000002   0.000000   0.000006
    26  H   -0.000102  -0.000836   0.001185  -0.000047  -0.000016  -0.000090
    27  C   -0.044890  -0.017270  -0.000281  -0.000003  -0.000032   0.001314
    28  C    0.000240   0.004561  -0.000088   0.000002   0.000000   0.000007
    29  H    0.000452   0.000652   0.000009  -0.000001   0.000001  -0.000056
    30  H   -0.011328  -0.003312   0.000059  -0.000125  -0.000087   0.004515
    31  C   -0.007248  -0.002600  -0.000113  -0.000001  -0.000001   0.000347
    32  H   -0.000005   0.000031   0.000022   0.000000   0.000000  -0.000000
    33  H   -0.000010  -0.000137  -0.000000  -0.000000   0.000000  -0.000000
    34  C    0.000043   0.000039  -0.000012  -0.000000  -0.000000   0.000001
    35  H   -0.030077  -0.001839   0.000004  -0.000151  -0.000110   0.005781
    36  H    0.000913   0.000695   0.000014  -0.000001   0.000001  -0.000092
    37  H    0.000003   0.000005   0.000018   0.000000  -0.000000  -0.000000
    38  H   -0.000011  -0.000137   0.000000  -0.000000   0.000000  -0.000000
    39  H    0.000679  -0.000001   0.000003   0.000000   0.000000  -0.000023
    40  C   -0.000109   0.000353   0.000005  -0.000000  -0.000000   0.000000
    41  H   -0.000000   0.000013  -0.000000   0.000000   0.000000  -0.000000
    42  H    0.000005  -0.000013  -0.000000   0.000000   0.000000  -0.000000
    43  H    0.000005  -0.000012  -0.000000   0.000000   0.000000  -0.000000
               7          8          9         10         11         12
     1  C    0.375052   0.006281   0.000705   0.000018  -0.000031   0.000012
     2  C   -0.065142   0.000046   0.009207  -0.000243   0.000236  -0.000167
     3  C    0.000815   0.005268  -0.044671  -0.002531  -0.006020   0.003192
     4  C    0.000856  -0.047073   0.325365  -0.024206  -0.025833  -0.028892
     5  C    0.005048   0.359098  -0.064492  -0.001033   0.002478  -0.002624
     6  C   -0.024422  -0.049146   0.005716  -0.000144  -0.000117   0.000089
     7  H    0.618748  -0.000194   0.000013  -0.000000  -0.000000  -0.000000
     8  H   -0.000194   0.606278  -0.009346   0.000543   0.000080   0.005069
     9  C    0.000013  -0.009346   5.193716   0.367866   0.371985   0.366131
    10  H   -0.000000   0.000543   0.367866   0.546304  -0.028003  -0.029317
    11  H   -0.000000   0.000080   0.371985  -0.028003   0.531230  -0.027342
    12  H   -0.000000   0.005069   0.366131  -0.029317  -0.027342   0.555952
    13  O   -0.000046  -0.000041  -0.003945   0.000870   0.006236   0.000317
    14  H   -0.000006   0.000004   0.000043   0.000059  -0.000300  -0.000004
    15  C   -0.009659  -0.007437  -0.000208   0.000004   0.000002  -0.000005
    16  H    0.000215   0.002192  -0.000000  -0.000001   0.000000   0.000002
    17  H    0.000138   0.001842   0.000002   0.000000  -0.000000  -0.000003
    18  H    0.006327   0.000037   0.000002  -0.000000  -0.000000   0.000000
    19  C   -0.002740   0.000010  -0.000216   0.000003   0.000013   0.000002
    20  H   -0.000185  -0.000000  -0.000015  -0.000001   0.000005  -0.000000
    21  C   -0.002353   0.000000   0.000002  -0.000000  -0.000001  -0.000000
    22  C   -0.003642   0.000000   0.000001   0.000000   0.000000  -0.000000
    23  H    0.000282  -0.000000   0.000001  -0.000000   0.000000  -0.000000
    24  C   -0.013097   0.000001   0.000000   0.000000  -0.000000  -0.000000
    25  C   -0.000030   0.000000  -0.000000  -0.000000   0.000000   0.000000
    26  H    0.000486  -0.000000   0.000000   0.000000  -0.000000  -0.000000
    27  C   -0.024504   0.000001   0.000000  -0.000000   0.000000   0.000000
    28  C   -0.000110   0.000000  -0.000000   0.000000  -0.000000   0.000000
    29  H    0.001106  -0.000000   0.000000  -0.000000   0.000000   0.000000
    30  H   -0.012237   0.000004  -0.000000  -0.000000   0.000000   0.000000
    31  C    0.005938   0.000000  -0.000000   0.000000   0.000000  -0.000000
    32  H   -0.000001  -0.000000   0.000000  -0.000000   0.000000   0.000000
    33  H    0.000005  -0.000000   0.000000  -0.000000  -0.000000  -0.000000
    34  C    0.000060  -0.000000   0.000000   0.000000  -0.000000   0.000000
    35  H   -0.021815   0.000006   0.000000   0.000000  -0.000000  -0.000000
    36  H    0.001750  -0.000000   0.000000   0.000000  -0.000000  -0.000000
    37  H   -0.000001  -0.000000   0.000000   0.000000  -0.000000   0.000000
    38  H    0.000008  -0.000000   0.000000  -0.000000   0.000000  -0.000000
    39  H    0.000807  -0.000000   0.000000  -0.000000   0.000000  -0.000000
    40  C   -0.001274   0.000000   0.000000  -0.000000  -0.000000  -0.000000
    41  H   -0.000001   0.000000  -0.000000   0.000000  -0.000000   0.000000
    42  H    0.000047  -0.000000   0.000000  -0.000000   0.000000   0.000000
    43  H    0.000051  -0.000000   0.000000   0.000000  -0.000000  -0.000000
              13         14         15         16         17         18
     1  C    0.004535   0.000051  -0.037628   0.000025   0.000214  -0.003821
     2  C   -0.073974  -0.009960   0.006975  -0.000187  -0.000192   0.000213
     3  C    0.279739  -0.020712   0.001459   0.000000   0.000019  -0.000030
     4  C   -0.061027   0.004346   0.004681   0.000077  -0.000068  -0.000122
     5  C    0.003608  -0.000087  -0.063428  -0.002302  -0.002624   0.003649
     6  C   -0.000063  -0.000010   0.333830  -0.026816  -0.026297  -0.029407
     7  H   -0.000046  -0.000006  -0.009659   0.000215   0.000138   0.006327
     8  H   -0.000041   0.000004  -0.007437   0.002192   0.001842   0.000037
     9  C   -0.003945   0.000043  -0.000208  -0.000000   0.000002   0.000002
    10  H    0.000870   0.000059   0.000004  -0.000001   0.000000  -0.000000
    11  H    0.006236  -0.000300   0.000002   0.000000  -0.000000  -0.000000
    12  H    0.000317  -0.000004  -0.000005   0.000002  -0.000003   0.000000
    13  O    8.298598   0.235861   0.000001  -0.000000  -0.000000  -0.000000
    14  H    0.235861   0.351097  -0.000000  -0.000000   0.000000   0.000000
    15  C    0.000001  -0.000000   5.193117   0.368781   0.368617   0.367942
    16  H   -0.000000  -0.000000   0.368781   0.549206  -0.030914  -0.027366
    17  H   -0.000000   0.000000   0.368617  -0.030914   0.548272  -0.027447
    18  H   -0.000000   0.000000   0.367942  -0.027366  -0.027447   0.552638
    19  C   -0.014645   0.007122  -0.000243   0.000004   0.000002   0.000006
    20  H    0.007830   0.013628   0.000002  -0.000000  -0.000000   0.000000
    21  C    0.000317  -0.000165  -0.000006   0.000000   0.000000   0.000001
    22  C    0.000226  -0.000734  -0.000005   0.000000   0.000000   0.000003
    23  H    0.000301  -0.000058   0.000001  -0.000000  -0.000000  -0.000000
    24  C   -0.000013   0.000020   0.000095  -0.000004   0.000015  -0.000081
    25  C    0.000006   0.000029  -0.000000   0.000000   0.000000  -0.000000
    26  H    0.000118   0.000094   0.000001  -0.000000  -0.000000  -0.000000
    27  C   -0.000007   0.000011   0.000151   0.000012  -0.000007  -0.000152
    28  C    0.000008  -0.000005  -0.000000   0.000000   0.000000  -0.000000
    29  H    0.000000  -0.000000  -0.000001   0.000000  -0.000000   0.000002
    30  H    0.000002  -0.000001   0.000281   0.000009  -0.000037   0.000037
    31  C   -0.000000   0.000000  -0.000038   0.000000  -0.000000  -0.000049
    32  H   -0.000021  -0.000006  -0.000000   0.000000  -0.000000   0.000000
    33  H    0.000000  -0.000001   0.000000  -0.000000  -0.000000   0.000000
    34  C   -0.000001   0.000004  -0.000000  -0.000000   0.000000   0.000000
    35  H    0.000001   0.000004   0.000409  -0.000062   0.000017   0.000111
    36  H    0.000000  -0.000000  -0.000002  -0.000000   0.000000   0.000005
    37  H   -0.000013  -0.000012  -0.000000  -0.000000   0.000000   0.000000
    38  H    0.000000   0.000000   0.000000  -0.000000  -0.000000   0.000000
    39  H   -0.000000   0.000000  -0.000010  -0.000000  -0.000000   0.000094
    40  C    0.000000  -0.000000   0.000000   0.000000  -0.000000  -0.000000
    41  H    0.000000  -0.000000   0.000000   0.000000   0.000000  -0.000000
    42  H    0.000000   0.000000  -0.000000   0.000000  -0.000000  -0.000000
    43  H    0.000000   0.000000  -0.000000  -0.000000   0.000000  -0.000000
              19         20         21         22         23         24
     1  C   -0.051727   0.007323  -0.009391  -0.007787  -0.000063  -0.025300
     2  C    0.310060  -0.049560  -0.036487  -0.034794  -0.002510  -0.016202
     3  C   -0.031429  -0.012736   0.001295   0.000175   0.001023  -0.000187
     4  C    0.007360   0.000665  -0.000161  -0.000185  -0.000056   0.000004
     5  C    0.001144  -0.000030   0.000004   0.000004  -0.000017  -0.000015
     6  C    0.005097  -0.000042   0.000018   0.000142  -0.000036   0.000413
     7  H   -0.002740  -0.000185  -0.002353  -0.003642   0.000282  -0.013097
     8  H    0.000010  -0.000000   0.000000   0.000000  -0.000000   0.000001
     9  C   -0.000216  -0.000015   0.000002   0.000001   0.000001   0.000000
    10  H    0.000003  -0.000001  -0.000000   0.000000  -0.000000   0.000000
    11  H    0.000013   0.000005  -0.000001   0.000000   0.000000  -0.000000
    12  H    0.000002  -0.000000  -0.000000  -0.000000  -0.000000  -0.000000
    13  O   -0.014645   0.007830   0.000317   0.000226   0.000301  -0.000013
    14  H    0.007122   0.013628  -0.000165  -0.000734  -0.000058   0.000020
    15  C   -0.000243   0.000002  -0.000006  -0.000005   0.000001   0.000095
    16  H    0.000004  -0.000000   0.000000   0.000000  -0.000000  -0.000004
    17  H    0.000002  -0.000000   0.000000   0.000000  -0.000000   0.000015
    18  H    0.000006   0.000000   0.000001   0.000003  -0.000000  -0.000081
    19  C    5.210930   0.337104   0.360742   0.356537  -0.041344  -0.036716
    20  H    0.337104   0.680961  -0.037954  -0.045060  -0.004016   0.005427
    21  C    0.360742  -0.037954   4.955185  -0.027328   0.368391   0.372978
    22  C    0.356537  -0.045060  -0.027328   4.975310   0.005371  -0.023799
    23  H   -0.041344  -0.004016   0.368391   0.005371   0.633123  -0.039931
    24  C   -0.036716   0.005427   0.372978  -0.023799  -0.039931   5.192593
    25  C   -0.046102  -0.002552   0.365862  -0.018121  -0.039725  -0.047345
    26  H   -0.044010  -0.004500   0.005383   0.366678  -0.000156   0.000185
    27  C   -0.033094   0.005681  -0.022938   0.366700   0.000126  -0.058113
    28  C   -0.047134  -0.001840  -0.018103   0.366201   0.000073  -0.001430
    29  H    0.005258  -0.000156  -0.036294   0.000002  -0.003384   0.357730
    30  H   -0.006913  -0.000152  -0.036178   0.001726  -0.003853   0.368207
    31  C   -0.020109   0.000145  -0.028423  -0.028051   0.004824   0.376091
    32  H   -0.004656   0.005613  -0.037395  -0.001521  -0.003621   0.005587
    33  H    0.005152  -0.000048  -0.034325   0.000093  -0.003700  -0.004278
    34  C   -0.020710  -0.001866  -0.022161  -0.021894   0.004774  -0.021446
    35  H   -0.006515  -0.000241   0.002077  -0.037852  -0.000070  -0.006773
    36  H    0.005041  -0.000167  -0.000027  -0.036132   0.000021   0.006274
    37  H   -0.004212   0.005629  -0.001469  -0.038242  -0.000079   0.000118
    38  H    0.005131  -0.000072   0.000080  -0.034220   0.000021   0.000111
    39  H    0.000154   0.000021   0.005179   0.005235  -0.000154  -0.042519
    40  C   -0.003371  -0.000003  -0.015767  -0.015743   0.000193  -0.049650
    41  H    0.000264  -0.000077   0.004965   0.004972  -0.000161   0.000122
    42  H    0.000186  -0.000001  -0.000063  -0.001722   0.000020   0.005511
    43  H    0.000182  -0.000001  -0.001710  -0.000045  -0.000084  -0.003586
              25         26         27         28         29         30
     1  C    0.000272  -0.000102  -0.044890   0.000240   0.000452  -0.011328
     2  C    0.004596  -0.000836  -0.017270   0.004561   0.000652  -0.003312
     3  C   -0.000069   0.001185  -0.000281  -0.000088   0.000009   0.000059
     4  C    0.000002  -0.000047  -0.000003   0.000002  -0.000001  -0.000125
     5  C    0.000000  -0.000016  -0.000032   0.000000   0.000001  -0.000087
     6  C    0.000006  -0.000090   0.001314   0.000007  -0.000056   0.004515
     7  H   -0.000030   0.000486  -0.024504  -0.000110   0.001106  -0.012237
     8  H    0.000000  -0.000000   0.000001   0.000000  -0.000000   0.000004
     9  C   -0.000000   0.000000   0.000000  -0.000000   0.000000  -0.000000
    10  H   -0.000000   0.000000  -0.000000   0.000000  -0.000000  -0.000000
    11  H    0.000000  -0.000000   0.000000  -0.000000   0.000000   0.000000
    12  H    0.000000  -0.000000   0.000000   0.000000   0.000000   0.000000
    13  O    0.000006   0.000118  -0.000007   0.000008   0.000000   0.000002
    14  H    0.000029   0.000094   0.000011  -0.000005  -0.000000  -0.000001
    15  C   -0.000000   0.000001   0.000151  -0.000000  -0.000001   0.000281
    16  H    0.000000  -0.000000   0.000012   0.000000   0.000000   0.000009
    17  H    0.000000  -0.000000  -0.000007   0.000000  -0.000000  -0.000037
    18  H   -0.000000  -0.000000  -0.000152  -0.000000   0.000002   0.000037
    19  C   -0.046102  -0.044010  -0.033094  -0.047134   0.005258  -0.006913
    20  H   -0.002552  -0.004500   0.005681  -0.001840  -0.000156  -0.000152
    21  C    0.365862   0.005383  -0.022938  -0.018103  -0.036294  -0.036178
    22  C   -0.018121   0.366678   0.366700   0.366201   0.000002   0.001726
    23  H   -0.039725  -0.000156   0.000126   0.000073  -0.003384  -0.003853
    24  C   -0.047345   0.000185  -0.058113  -0.001430   0.357730   0.368207
    25  C    5.102973   0.000050  -0.001479  -0.050475  -0.005233   0.005318
    26  H    0.000050   0.645026  -0.039522  -0.040575   0.000021  -0.000065
    27  C   -0.001479  -0.039522   5.222029  -0.046932   0.006196  -0.006251
    28  C   -0.050475  -0.040575  -0.046932   5.103043  -0.000015  -0.000114
    29  H   -0.005233   0.000021   0.006196  -0.000015   0.617983  -0.025896
    30  H    0.005318  -0.000065  -0.006251  -0.000114  -0.025896   0.596697
    31  C   -0.016927   0.004858   0.375601  -0.016973  -0.038501  -0.040073
    32  H    0.360773  -0.000076   0.000124  -0.004272  -0.000012  -0.000179
    33  H    0.359676   0.000022   0.000119   0.005510   0.005408  -0.000044
    34  C    0.381330   0.004823  -0.021631   0.381584  -0.001257   0.000044
    35  H   -0.000144  -0.004286   0.375200   0.005355  -0.000206  -0.000898
    36  H   -0.000019  -0.003372   0.354558  -0.005514  -0.000114  -0.000183
    37  H   -0.004208  -0.003465   0.005626   0.359754  -0.000001  -0.000001
    38  H    0.005486  -0.003838  -0.004260   0.359544  -0.000001  -0.000001
    39  H    0.000146  -0.000155  -0.043261   0.000139  -0.003838  -0.003570
    40  C   -0.050562   0.000183  -0.048675  -0.050680  -0.004784   0.005516
[...]
 47102,-0.01982282,-0.00917156,0.00860933,0.00024088,-0.00024037,-0.000
 18976,0.00012986,-0.00088675,0.00087535,-0.00033125,-0.00032068,0.0013
 1796,0.08127345,0.03719890,-0.08583023,0.00012699,-0.00008293,0.000039
 84,0.00003193,-0.00005659,-0.00003719,0.00032006,-0.00131981,0.0007173
 9,0.00059797,0.00073027,0.00073332,0.00029978,0.00084129,0.00098049,-0
 .00002542,0.00016141,0.00006890,-0.00000689,0.00003696,0.00003008,-0.0
 8752588,-0.04014824,0.09427404,-0.00009341,-0.00000041,0.00005144,0.00
 002571,0.00001862,0.00002309,0.00002838,0.00006758,0.00003363,0.000025
 76,0.00000600,0.00001454,-0.00002585,0.00000219,-0.00001015,-0.0000116
 4,0.00004134,0.00001568,0.00004644,0.00005662,-0.00002349,0.00000237,0
 .00000227,-0.00000244,-0.00000394,0.00000782,-0.00000302,0.00000443,0.
 00000090,0.00000130,-0.00000410,-0.00000463,0.00000096,0.00000097,0.00
 000156,0.00000057,-0.00006888,0.00000051,0.00001772,0.00001944,-0.0000
 0358,-0.00004718,-0.00000105,0.00000211,0.00000318,-0.00000747,0.00000
 535,-0.00000018,-0.00000085,-0.00000381,0.00000185,0.00000211,0.000000
 93,-0.00000259,-0.00028604,-0.00003369,-0.00002213,-0.00009135,-0.0001
 3823,0.00001853,0.00085041,-0.00053023,0.00011608,0.00108672,0.0003699
 2,0.00029407,-0.00056698,0.00008930,0.00020088,-0.00701708,0.01091040,
 -0.00441669,0.00648773,-0.00165577,0.00346960,-0.00051660,0.00034266,0
 .00017415,0.01075410,-0.00526014,0.00072262,-0.01698686,-0.01346851,0.
 00071720,0.00009856,0.00015675,0.00063767,0.00115504,-0.00013133,-0.00
 074149,-0.12244695,0.04138850,0.01065519,0.00084259,0.00203626,-0.0033
 7926,0.00028705,0.00035653,-0.00090413,-0.14408898,-0.02657746,0.02924
 151,-0.00044640,-0.00364419,-0.00285902,0.00020412,-0.00031546,-0.0002
 5236,0.00082179,-0.00098595,-0.00127512,0.00037779,0.00041382,0.001118
 79,-0.01901928,0.02266798,0.00415797,0.45347269,0.00002278,0.00001295,
 0.00003909,0.00012796,-0.00008741,-0.00002800,-0.00000647,0.00002775,0
 .00002753,0.00002000,-0.00001222,0.00000242,-0.00002740,0.00000854,-0.
 00001591,-0.00001113,0.00001982,0.00002339,0.00001675,-0.00003889,-0.0
 0001879,-0.00000448,0.00001188,-0.00000155,-0.00000970,-0.00000252,-0.
 00000592,0.00000542,0.00000319,0.00000601,0.00000656,0.00000251,0.0000
 0157,-0.00000121,0.00001135,0.00000383,0.00004501,0.00012713,-0.000049
 25,-0.00015022,-0.00004853,0.00003352,0.00000231,0.00000685,0.00001079
 ,-0.00001113,-0.00000297,-0.00000157,-0.00000426,0.00000868,-0.0000064
 4,-0.00000049,-0.00000263,0.00000135,-0.00018195,-0.00069084,0.0001414
 9,0.00019436,0.00020072,-0.00009475,-0.00060493,-0.00005564,-0.0011174
 9,0.00052284,0.00058557,0.00138717,0.00017469,0.00054956,-0.00031916,0
 .01398138,-0.01682220,0.00323787,-0.01419798,-0.00850909,0.01060554,0.
 00033449,0.00067078,-0.00002714,0.01452501,-0.02414413,-0.00846657,-0.
 02349340,-0.01285316,0.00626799,-0.00082787,0.00105190,-0.00172738,-0.
 00011980,-0.00036871,0.00170500,0.04341661,-0.12981028,-0.00981753,0.0
 0057585,-0.00089240,0.00214598,0.00000305,0.00081763,-0.00159249,-0.02
 883991,-0.09630067,0.01347514,-0.00181182,-0.00188644,-0.00205903,0.00
 053127,0.00146221,0.00148543,-0.00162409,-0.00267099,-0.00251739,0.000
 85291,0.00109982,0.00124491,-0.00830280,0.00996179,0.00177367,0.025871
 79,0.53621004,-0.00017520,0.00002946,-0.00032090,0.00001195,0.00005512
 ,0.00018049,-0.00012499,0.00000468,-0.00006391,0.00000835,0.00004013,0
 .00001028,-0.00000066,0.00001663,0.00003306,0.00012335,0.00001164,0.00
 005236,0.00009960,-0.00009586,0.00023030,0.00001084,0.00001398,0.00001
 385,0.00000968,-0.00000147,0.00000175,0.00000333,0.00001001,0.00000855
 ,0.00000148,0.00000786,0.00000100,0.00000267,-0.00000265,0.00000060,0.
 00012966,-0.00005714,0.00011404,-0.00005545,0.00013666,-0.00006584,0.0
 0000324,-0.00001108,-0.00003285,-0.00000102,-0.00000077,0.00000315,0.0
 0000144,0.00001103,0.00000297,0.00001226,-0.00000038,0.00001867,0.0000
 3052,0.00005804,-0.00028893,0.00000109,0.00000188,-0.00005856,0.000101
 59,-0.00100253,0.00175916,0.00032678,0.00126984,0.00086429,0.00016126,
 -0.00037750,0.00001503,-0.02140696,0.02341415,0.00395579,0.02570426,0.
 01612057,-0.01750286,0.00024578,0.00010247,-0.00012502,0.01440963,-0.0
 2011894,-0.00506599,-0.01844787,-0.00796909,0.00937591,-0.00038073,0.0
 0039388,0.00083262,-0.00175368,0.00394204,-0.00569834,0.01074704,-0.00
 963658,-0.08284311,-0.00150706,0.00328664,-0.00470570,0.00096693,-0.00
 002558,0.00088598,0.02958600,0.01285756,-0.09278705,-0.00212790,-0.003
 40626,-0.00250692,0.00070843,-0.00032123,0.00029996,-0.00300287,-0.004
 63214,-0.00307417,-0.00102046,-0.00052900,0.00040188,0.00855091,-0.010
 33913,-0.00210191,0.06129151,0.00036756,0.58821483,-0.00000679,0.00000
 186,-0.00003042,0.00004391,0.00002981,0.00011356,-0.00011711,0.0000259
 4,-0.00004007,0.00000835,0.00000779,-0.00000364,0.00000115,0.00001001,
 0.00000493,0.00003297,-0.00001318,0.00000648,0.00003407,-0.00002142,0.
 00003450,-0.00000095,0.00000877,0.00000382,-0.00000258,-0.00000310,-0.
 00000220,0.00000196,0.00000386,0.00000516,0.00000576,0.00000465,0.0000
 0019,-0.00000029,0.00000579,0.00000249,0.00006383,-0.00002750,0.000066
 74,-0.00000256,-0.00000219,-0.00005388,0.00000064,0.00000051,-0.000001
 45,-0.00000294,-0.00000328,0.00000055,-0.00000150,0.00000835,-0.000004
 11,0.00000282,-0.00000132,0.00000565,-0.00015220,-0.00006345,-0.000215
 65,0.00004252,0.00005822,0.00002824,0.00098846,-0.00003708,-0.00184183
 ,-0.00069708,-0.00176283,-0.00193615,-0.00025707,0.00044102,0.00015235
 ,0.00056394,-0.00041214,0.00032774,-0.00454462,0.00469841,0.00103346,0
 .00052771,-0.00063348,-0.00023173,-0.00018147,-0.00050479,-0.00035284,
 0.00955848,-0.01105036,-0.00254564,-0.00004805,-0.00000255,-0.00008608
 ,0.00000362,0.00010969,-0.00009221,-0.00347621,-0.00482516,0.00236508,
 0.00071827,-0.00009454,-0.00036682,-0.00004979,-0.00019951,-0.00001048
 ,-0.16003457,0.12257241,0.02865023,0.00016823,0.00020454,0.00003745,0.
 00004523,0.00004772,0.00007168,0.00085144,0.00053551,0.00056162,0.0003
 9493,0.00053746,0.00062883,-0.00131499,0.00145709,0.00037300,-0.019566
 59,0.02075425,0.00497656,0.17430284,-0.00002848,-0.00002692,-0.0000385
 5,-0.00002166,0.00011978,0.00005921,-0.00002280,-0.00000133,-0.0000430
 3,-0.00001810,0.00003603,-0.00000008,0.00004298,-0.00002391,0.00002586
 ,-0.00001735,-0.00003005,-0.00002671,-0.00004184,0.00002480,0.00000730
 ,0.00000788,-0.00001930,-0.00000268,0.00001264,0.00000858,0.00000545,-
 0.00000611,-0.00000245,-0.00000626,-0.00001143,-0.00000544,-0.00000203
 ,0.00000246,-0.00001736,-0.00000421,-0.00006480,-0.00016965,0.00010169
 ,0.00017090,0.00010660,-0.00008156,-0.00000662,-0.00000839,-0.00001832
 ,0.00002159,-0.00000276,0.00000072,0.00001166,-0.00001147,0.00000969,0
 .00000031,0.00000432,0.00000379,-0.00014870,0.00078535,-0.00009644,-0.
 00006598,-0.00005967,0.00003310,-0.00030299,0.00006909,0.00367993,-0.0
 0357159,-0.00143035,-0.00337115,0.00080780,-0.00074734,-0.00018656,-0.
 00036419,-0.00012584,0.00017153,0.01004971,-0.01148103,-0.00234209,0.0
 0107731,-0.00107879,-0.00025984,-0.00049457,-0.00010885,0.00019387,0.0
 1444101,-0.01657733,-0.00383285,0.00005669,0.00003740,-0.00001101,0.00
 009547,0.00003609,-0.00015216,-0.00232525,-0.00080609,0.00114873,-0.00
 044600,0.00016560,-0.00028952,-0.00012057,0.00081575,0.00020681,0.1224
 1321,-0.18324409,-0.03156300,0.00020081,0.00010682,0.00004943,0.000052
 52,0.00003933,-0.00004139,-0.00012616,0.00046300,0.00072170,-0.0001683
 4,0.00097021,-0.00006663,-0.00064054,0.00056727,0.00018435,-0.01028667
 ,0.01106916,0.00261959,-0.13167277,0.19920974,-0.00007062,-0.00005065,
 0.00001388,0.00012994,0.00011180,0.00030461,-0.00020670,0.00006490,-0.
 00007766,0.00001955,0.00004351,0.00000197,0.00002232,0.00000954,0.0000
 1656,0.00003893,-0.00003714,0.00000194,0.00007955,-0.00001760,-0.00000
 256,0.00000509,0.00000272,0.00000236,0.00000016,0.00000671,-0.00000155
 ,0.00000192,0.00000459,0.00000496,-0.00000113,0.00000313,0.00000007,0.
 00000319,-0.00000086,0.00000130,0.00006132,-0.00012382,0.00016209,0.00
 006411,0.00007030,-0.00013724,-0.00000296,-0.00000520,-0.00000553,-0.0
 0000078,0.00000368,0.00000327,0.00000123,-0.00000108,0.00000135,0.0000
 0701,0.00000217,0.00000234,-0.00022941,-0.00024426,-0.00062257,0.00005
 349,0.00000087,0.00009282,-0.00025968,0.00181454,-0.00569232,-0.003276
 34,-0.00214426,-0.00268343,-0.00125662,0.00145267,0.00025392,0.0004538
 0,0.00014512,-0.00036301,-0.02047262,0.02271994,0.00470160,0.00093195,
 -0.00114910,-0.00014119,-0.00043283,0.00025319,0.00035130,0.01509771,-
 0.01685822,-0.00424066,-0.00003767,-0.00004362,0.00005731,-0.00012504,
 -0.00011938,0.00019264,0.00189577,0.00213210,-0.00043275,0.00056624,-0
 .00059546,0.00122272,0.00021310,-0.00083532,0.00120490,0.02860322,-0.0
 3154441,-0.05621290,0.00007433,0.00000537,-0.00000626,0.00002190,0.000
 00602,-0.00004920,-0.00024834,0.00063658,0.00082371,0.00046893,0.00072
 010,0.00055986,0.00065157,-0.00063284,-0.00002036,0.00900707,-0.009712
 38,-0.00255349,-0.03093676,0.03394789,0.06257865,-0.00005359,0.0000095
 2,-0.00013084,-0.00002499,-0.00002118,-0.00003463,-0.00001652,-0.00001
 409,-0.00000607,-0.00000371,-0.00000236,-0.00000127,-0.00001039,0.0000
 0787,0.00000586,0.00004933,0.00001000,0.00002399,0.00003737,-0.0000211
 4,0.00008693,0.00000135,0.00000945,0.00000491,0.00000275,-0.00000575,-
 0.00000156,0.00000261,0.00000356,0.00000368,0.00000437,0.00000449,0.00
 000182,-0.00000072,0.00000287,0.00000054,0.00004239,0.00000977,0.00001
 110,-0.00001358,-0.00000740,0.00000515,0.00000252,-0.00000350,-0.00000
 963,-0.00000263,-0.00000299,0.00000019,-0.00000098,0.00000870,-0.00000
 154,0.00000307,-0.00000137,0.00000863,0.00000603,0.00001307,-0.0000151
 0,0.00009447,0.00009757,0.00006873,-0.00065333,0.00011528,0.00016990,-
 0.00017064,0.00006682,0.00004553,0.00028810,-0.00002730,-0.00014374,-0
 .00301858,0.00369761,0.00215337,-0.00528725,-0.00227206,0.00121393,0.0
 0009162,-0.00002165,-0.00003586,0.00057862,-0.00108123,-0.00063767,0.0
 0136077,0.00035114,0.00097488,0.00011849,-0.00019516,0.00045277,-0.000
 16985,0.00116166,-0.00134428,-0.00493720,0.01042878,-0.02086864,0.0003
 5001,-0.00109304,0.00165375,-0.00003934,0.00022040,-0.00009182,0.00614
 664,-0.01425465,0.02503111,-0.00015061,-0.00025898,0.00012747,0.000352
 16,0.00003241,0.00053483,0.00009152,0.00042180,0.00000819,-0.00012359,
 0.00006192,-0.00050238,0.00054184,-0.00087502,-0.00018993,-0.05980114,
 0.02387565,-0.04648557,0.00121819,0.00071647,-0.00047210,0.06594102,0.
 00004219,0.00000300,0.00009380,-0.00003181,-0.00000166,-0.00009042,0.0
 0007094,-0.00002300,0.00003146,-0.00001173,0.00000051,-0.00000143,0.00
 001370,-0.00001262,-0.00000534,-0.00005309,-0.00000968,-0.00001953,-0.
 00004634,0.00004001,-0.00007962,-0.00000037,-0.00001221,-0.00000518,0.
 00000140,0.00000321,0.00000466,-0.00000470,-0.00000551,-0.00000802,-0.
 00000433,-0.00000489,-0.00000144,-0.00000024,-0.00000604,-0.00000219,-
 0.00006390,-0.00000437,-0.00005195,0.00003072,0.00000176,0.00003929,-0
 .00000269,0.00000227,0.00000857,0.00000675,0.00000145,-0.00000148,0.00
 000209,-0.00000871,0.00000287,-0.00000494,0.00000068,-0.00000795,0.000
 07173,0.00020536,0.00012077,-0.00005714,-0.00001931,-0.00006050,0.0001
 8113,0.00054512,-0.00036272,-0.00001744,-0.00018478,-0.00021577,-0.000
 07877,-0.00003751,0.00003738,0.00351448,-0.00292793,-0.00277691,-0.002
 89869,-0.00002602,-0.00005630,-0.00005514,-0.00007753,-0.00001256,-0.0
 0016201,0.00092441,0.00158630,0.00078914,0.00019571,0.00103210,0.00007
 021,0.00023980,0.00017608,0.00035799,-0.00068218,0.00147290,0.00460172
 ,-0.01201787,0.02124522,0.00024056,-0.00019489,0.00078550,0.00016696,0
 .00011479,0.00026821,0.00244865,-0.00666959,0.01047150,0.00004880,0.00
 034906,-0.00021836,-0.00016923,-0.00012293,-0.00080685,0.00000471,0.00
 023594,-0.00020439,-0.00042855,-0.00010361,-0.00055288,-0.00022268,0.0
 0099312,-0.00041654,0.02330554,-0.10479477,0.09862220,-0.00019076,0.00
 058912,-0.00040414,-0.02719387,0.11207164,-0.00001496,0.00000317,-0.00
 001057,0.00006017,-0.00002237,0.00006691,-0.00005598,0.00003337,-0.000
 01737,0.00001451,-0.00000798,0.00000043,-0.00001623,0.00000841,-0.0000
 0229,0.00002442,0.00001089,0.00000637,0.00003382,0.00000422,0.00001142
 ,-0.00000235,0.00001044,0.00000157,-0.00000454,-0.00000274,-0.00000533
 ,0.00000428,0.00000345,0.00000674,0.00000436,0.00000302,0.00000079,-0.
 00000054,0.00000838,0.00000239,0.00003546,0.00002081,0.00002943,-0.000
 03699,-0.00002148,-0.00003039,0.00000217,0.00000059,0.00000166,-0.0000
 0991,0.00000062,0.00000166,-0.00000330,0.00000552,-0.00000439,0.000002
 80,-0.00000018,0.00000149,-0.00006332,-0.00010149,-0.00006298,-0.00000
 284,-0.00001242,0.00000004,0.00015831,-0.00038831,-0.00002004,0.000100
 26,0.00014424,0.00006569,-0.00011685,0.00009107,-0.00001696,0.00032271
 ,-0.00103573,0.00102045,0.00362188,0.00055427,0.00045088,-0.00001089,0
 .00005497,0.00001790,0.00013600,-0.00027968,0.00058494,-0.00095935,-0.
 00081334,0.00027517,0.00016721,-0.00002826,0.00019112,0.00017975,0.000
 05021,0.00025850,0.00074676,-0.00332968,0.00487494,-0.00014818,0.00093
 614,-0.00078144,0.00004414,-0.00015591,0.00043591,-0.00306438,0.005660
 79,-0.01214396,0.00001489,0.00011421,0.00023922,0.00017966,0.00027192,
 0.00034685,0.00018325,-0.00023417,0.00024539,0.00025073,0.00022415,0.0
 0084982,-0.00064481,0.00033673,0.00046472,-0.04602670,0.09993025,-0.23
 629282,0.00009859,-0.00047805,0.00021254,0.04905751,-0.11066031,0.2563
 6238,0.00001567,-0.00002849,-0.00000823,0.00002653,0.00001984,0.000092
 19,-0.00007938,-0.00000032,-0.00004173,0.00000752,0.00000156,-0.000003
 70,0.00001229,-0.00000643,0.00000336,0.00000808,-0.00001641,-0.0000053
 0,-0.00000463,0.00000213,0.00000358,0.00000169,-0.00000432,0.00000098,
 0.00000243,0.00000106,0.00000233,-0.00000373,0.00000042,0.00000051,-0.
 00000045,0.00000271,-0.00000217,0.00000173,-0.00000388,-0.00000020,0.0
 0006856,-0.00003219,0.00003537,-0.00003548,0.00006544,-0.00001138,-0.0
 0000235,-0.00000253,-0.00000337,0.00000739,-0.00000235,0.00000076,0.00
 000300,-0.00000143,0.00000106,0.00000075,0.00000110,0.00000148,0.00000
 381,0.00003296,-0.00003673,0.00001632,0.00006543,-0.00010095,-0.000160
 47,-0.00000754,0.00012745,-0.00059264,0.00032923,0.00018100,0.00008885
 ,-0.00004287,-0.00001480,0.00099379,-0.00035584,0.00075235,0.00079204,
 0.00056353,-0.00144726,0.00029009,-0.00009053,-0.00010426,-0.00317899,
 0.00354640,0.00002378,-0.00469629,-0.00167279,0.00408790,-0.00003447,-
 0.00020978,-0.00023227,-0.00001516,-0.00026086,0.00019730,0.00927356,0
 .01626176,0.01476098,-0.00000872,0.00043063,0.00005895,0.00041182,0.00
 011110,0.00077832,-0.01131712,-0.01964141,-0.01900198,0.00060897,0.001
 19357,0.00088577,-0.00012250,-0.00018535,-0.00007184,-0.00079716,-0.00
 182902,-0.00107680,0.00017884,0.00033008,0.00029138,0.00103232,-0.0008
 8998,-0.00003483,-0.08554277,-0.06562989,-0.06173572,0.00087803,0.0007
 9208,-0.00044380,-0.00284658,-0.00427097,-0.00426150,0.09471481,-0.000
 06791,-0.00003977,-0.00002976,0.00002981,0.00005703,0.00011951,-0.0000
 3608,0.00002554,-0.00001177,0.00000861,0.00002733,0.00000294,0.0000170
 6,-0.00000834,0.00001542,-0.00000198,-0.00000663,-0.00000596,0.0000111
 4,0.00001074,0.00000590,0.00000532,-0.00000626,-0.00000078,0.00000456,
 0.00000744,0.00000101,-0.00000019,0.00000178,0.00000126,-0.00000604,-0
 .00000067,-0.00000070,0.00000310,-0.00000752,-0.00000125,0.00000448,-0
 .00006574,0.00006511,0.00003392,0.00005904,-0.00005531,-0.00000663,-0.
 00001018,-0.00001694,0.00000723,0.00000127,0.00000146,0.00000660,-0.00
 000557,0.00000646,0.00000483,0.00000517,0.00000622,-0.00003725,0.00016
 078,-0.00019443,0.00000511,-0.00001057,0.00008193,0.00012626,-0.000122
 95,0.00023185,0.00032764,0.00065047,-0.00000818,-0.00001089,-0.0000733
 8,0.00006523,-0.00123691,0.00058892,-0.00124065,0.00003216,0.00006959,
 -0.00117249,-0.00007382,-0.00002245,0.00002683,0.00497736,-0.00241154,
 0.00063744,-0.00211834,0.00036740,0.00234268,0.00044608,0.00007682,0.0
 0095554,0.00018320,0.00041585,0.00009732,-0.00966229,-0.01720943,-0.01
 533208,0.00009284,0.00027338,0.00016165,0.00014799,0.00003124,0.000734
 43,-0.00466840,-0.00889183,-0.00767665,-0.00068253,-0.00111038,-0.0010
 7021,-0.00006501,0.00018697,-0.00015817,-0.00032762,-0.00049072,-0.000
 65077,0.00000034,0.00008330,-0.00026142,0.00015160,0.00107696,0.000184
 66,-0.06508321,-0.16392535,-0.10486628,-0.00000223,0.00075437,0.000362
 28,0.00602594,0.01143066,0.00909027,0.07143414,0.17805727,-0.00003871,
 -0.00002309,-0.00000231,-0.00000009,0.00001224,0.00002906,0.00001348,0
 .00001491,0.00000206,-0.00000008,0.00001040,0.00000502,0.00001018,-0.0
 0000634,0.00000637,-0.00001452,-0.00000345,-0.00000424,-0.00000064,0.0
 0001409,-0.00001364,0.00000295,-0.00000609,-0.00000213,0.00000307,0.00
 000530,-0.00000007,-0.00000045,-0.00000008,-0.00000051,-0.00000476,-0.
 00000171,-0.00000021,0.00000173,-0.00000573,-0.00000128,-0.00001993,-0
 .00003857,0.00002323,0.00003870,0.00002018,-0.00001871,-0.00000388,-0.
 00000505,-0.00000822,0.00000551,0.00000064,-0.00000018,0.00000427,-0.0
 0000508,0.00000470,0.00000119,0.00000305,0.00000254,-0.00000438,0.0000
 3291,-0.00003994,-0.00000936,-0.00004108,0.00005374,0.00005252,-0.0000
 5357,-0.00000799,0.00019849,0.00007202,-0.00018859,-0.00002941,-0.0000
 0271,0.00002264,-0.00019970,0.00093108,0.00041055,0.00026978,0.0004219
 6,0.00102042,-0.00012951,-0.00002183,-0.00000375,0.00184372,-0.0007180
 1,0.00077107,0.00185152,0.00118652,-0.00062607,0.00004550,0.00000502,0
 .00058229,0.00019765,0.00008577,0.00009265,-0.00234007,-0.00340502,-0.
 00472089,-0.00003496,-0.00015414,0.00022871,0.00006468,-0.00017181,0.0
 0011060,0.00480749,0.00987891,0.00780381,-0.00028056,-0.00069112,-0.00
 006538,0.00011198,0.00025255,0.00040289,0.00037319,0.00030334,0.000637
 90,0.00019490,-0.00000474,0.00028868,0.00015649,0.00012325,-0.00004209
 ,-0.06202087,-0.10633877,-0.15118815,-0.00079698,-0.00025653,0.0004740
 1,-0.01067213,-0.01897601,-0.01763879,0.06635199,0.11755642,0.16160019
 \\0.00000033,0.00000054,-0.00000003,0.00000021,-0.00000052,-0.00000031
 ,0.00000051,0.00000068,-0.00000015,0.00000313,-0.00000080,0.00000095,0
 .00000124,-0.00000054,0.00000131,0.00000141,0.00000239,0.00000291,0.00
 000093,0.00000254,0.00000066,0.00000256,0.00000085,0.00000125,0.000002
 16,-0.00000094,-0.00000052,0.00000280,-0.00000154,0.00000199,0.0000024
 8,-0.00000168,0.00000192,0.00000312,-0.00000077,0.00000210,0.00000122,
 -0.00000084,0.00000130,0.00000065,-0.00000129,-0.00000015,0.00000194,0
 .00000224,0.00000136,0.00000160,0.00000211,0.00000123,0.00000166,0.000
 00250,0.00000126,0.00000104,0.00000262,0.00000117,0.00000101,0.0000020
 4,0.00000105,-0.00000012,-0.00000122,-0.00000063,-0.00000053,-0.000001
 09,-0.00000077,-0.00000051,-0.00000073,-0.00000077,-0.00000060,0.00000
 095,-0.00000022,-0.00000237,0.00000061,-0.00000066,-0.00000231,0.00000
 058,-0.00000005,-0.00000026,-0.00000170,-0.00000059,-0.00000061,0.0000
 0015,0.00000025,-0.00000104,-0.00000168,-0.00000019,-0.00000183,0.0000
 0132,-0.00000057,-0.00000024,0.00000034,-0.00000067,-0.00000032,-0.000
 00123,-0.00000012,-0.00000129,-0.00000030,-0.00000089,-0.00000188,0.00
 000010,-0.00000117,-0.00000210,-0.00000089,-0.00000174,-0.00000034,-0.
 00000032,-0.00000021,-0.00000096,-0.00000078,-0.00000069,-0.00000062,-
 0.00000182,-0.00000118,-0.00000149,-0.00000182,-0.00000129,-0.00000184
 ,0.00000075,-0.00000090,-0.00000205,0.00000063,-0.00000148,-0.00000209
 ,-0.00000099,-0.00000183,-0.00000233,-0.00000062,-0.00000133,-0.000002
 26,0.00000019,-0.00000161\\\@
 The archive entry for this job was punched.


 WE STILL HAVE JUDGEMENT HERE,
 THAT WE TEACH BUT BLOODY INSTRUCTIONS,
 WHICH, BEING TAUGHT,
 RETURN TO PLAGUE THE INVENTOR.
           MACBETH ACT I, SCENE VII
 Job cpu time:       0 days  3 hours  3 minutes 19.5 seconds.
 Elapsed time:       0 days  0 hours 22 minutes 57.3 seconds.
 File lengths (MBytes):  RWF=    690 Int=      0 D2E=      0 Chk=     21 Scr=      1
 Normal termination of Gaussian 16 at Thu Sep 23 16:47:56 2021.
